/*--------------------------------*- C++ -*----------------------------------*\
  =========                 |
  \\      /  F ield         | OpenFOAM: The Open Source CFD Toolbox
   \\    /   O peration     | Website:  https://openfoam.org
    \\  /    A nd           | Version:  10
     \\/     M anipulation  |
\*---------------------------------------------------------------------------*/
FoamFile
{
    format      ascii;
    class       volScalarField;
    location    "100";
    object      k;
}
// * * * * * * * * * * * * * * * * * * * * * * * * * * * * * * * * * * * * * //

dimensions      [0 2 -2 0 0 0 0];

internalField   nonuniform List<scalar> 
12225
(
0.233345
0.116785
0.100288
0.0928431
0.0876376
0.0833022
0.0795124
0.0761439
0.0731243
0.0704049
0.0679484
0.0657254
0.0637132
0.0618953
0.0602664
0.0588427
0.0576096
0.0575799
0.315612
0.236007
0.214588
0.203232
0.194935
0.187957
0.181806
0.176296
0.171319
0.166803
0.162693
0.158943
0.155517
0.152382
0.149505
0.146832
0.144326
0.141487
0.347026
0.295217
0.273452
0.260085
0.24986
0.241118
0.233318
0.226256
0.21982
0.213932
0.208533
0.203571
0.199003
0.194784
0.190865
0.187176
0.183659
0.179862
0.363262
0.332136
0.313062
0.299361
0.288236
0.278473
0.269631
0.261539
0.254103
0.247254
0.240938
0.235104
0.229704
0.224689
0.220002
0.215574
0.211345
0.207094
0.372813
0.357365
0.342529
0.329784
0.31855
0.308309
0.298839
0.290053
0.281901
0.274338
0.26732
0.260804
0.254744
0.249092
0.24379
0.238778
0.234014
0.229412
0.378781
0.374555
0.364836
0.354031
0.343383
0.333156
0.323428
0.314243
0.305614
0.297536
0.289988
0.28294
0.276353
0.270185
0.264384
0.258905
0.253724
0.248823
0.382231
0.385813
0.381209
0.373056
0.363613
0.353871
0.344252
0.33496
0.326094
0.3177
0.309789
0.302352
0.295366
0.288796
0.282606
0.276764
0.271262
0.266105
0.383613
0.392609
0.392085
0.387213
0.379461
0.370643
0.361499
0.352401
0.343549
0.33505
0.326956
0.319287
0.312038
0.305191
0.298724
0.292622
0.286887
0.281527
0.383452
0.395396
0.398454
0.396271
0.390873
0.383354
0.375035
0.36644
0.357867
0.34949
0.34141
0.333681
0.326322
0.319335
0.312715
0.306462
0.300585
0.295087
0.382195
0.394946
0.400647
0.400552
0.397561
0.391744
0.38459
0.376791
0.368759
0.360741
0.352886
0.345286
0.337988
0.331014
0.324378
0.318093
0.312173
0.306619
0.380303
0.391936
0.399009
0.400867
0.399474
0.395599
0.389783
0.383046
0.37583
0.368427
0.361029
0.35376
0.346702
0.339905
0.3334
0.327214
0.321364
0.315852
0.378357
0.387582
0.3946
0.397634
0.397311
0.395046
0.390582
0.384898
0.378548
0.371865
0.365068
0.35829
0.351633
0.345164
0.33893
0.332961
0.327287
0.321916
0.376505
0.382508
0.388441
0.39185
0.3923
0.391102
0.388044
0.383441
0.378054
0.372191
0.366081
0.359889
0.35373
0.347687
0.341819
0.336176
0.330783
0.325653
0.374733
0.37647
0.380099
0.382811
0.383537
0.382947
0.381055
0.377602
0.37331
0.368454
0.363252
0.357868
0.352427
0.347018
0.34171
0.336552
0.33158
0.326821
0.372733
0.370591
0.37069
0.371198
0.371158
0.370558
0.369084
0.366534
0.363259
0.359445
0.355259
0.350838
0.346293
0.34171
0.337157
0.332685
0.328332
0.324136
0.371141
0.365261
0.361476
0.358994
0.357028
0.355201
0.353225
0.350887
0.348175
0.345134
0.341835
0.338349
0.334745
0.331081
0.327407
0.323762
0.320181
0.316705
0.369959
0.361274
0.354293
0.348758
0.344259
0.34048
0.337174
0.334131
0.331213
0.328341
0.325475
0.3226
0.319718
0.316837
0.313969
0.311128
0.308329
0.305597
0.369316
0.359173
0.350476
0.343116
0.336887
0.331595
0.327064
0.323129
0.319645
0.316494
0.313588
0.31086
0.308263
0.305765
0.303343
0.300985
0.298684
0.296446
0.369502
0.359742
0.351462
0.344528
0.3387
0.333756
0.329506
0.325777
0.322428
0.319353
0.316472
0.313731
0.311093
0.308534
0.30604
0.303601
0.301212
0.29886
0.370694
0.363754
0.358748
0.355113
0.352244
0.349767
0.347403
0.344943
0.342311
0.339495
0.336514
0.333405
0.330207
0.326959
0.323693
0.32044
0.31722
0.314046
0.372681
0.370363
0.370273
0.370544
0.370453
0.369853
0.368436
0.366035
0.362943
0.359328
0.355343
0.351119
0.346762
0.342354
0.337958
0.333619
0.329372
0.325238
0.375596
0.379059
0.383892
0.387063
0.387852
0.387096
0.384851
0.381016
0.376356
0.371163
0.365656
0.360007
0.354338
0.348734
0.343253
0.337934
0.332804
0.327884
0.378753
0.388341
0.395533
0.398414
0.397909
0.395395
0.390605
0.384722
0.378218
0.371415
0.364558
0.357768
0.351128
0.344693
0.338501
0.332572
0.326918
0.32155
0.381899
0.394271
0.400213
0.400129
0.397266
0.391594
0.384584
0.376921
0.369004
0.361084
0.3533
0.345757
0.338518
0.331616
0.325065
0.318863
0.313006
0.307494
0.383409
0.393682
0.395133
0.391693
0.384905
0.376614
0.367739
0.358763
0.349942
0.341419
0.333261
0.325518
0.318201
0.311307
0.304821
0.298728
0.29301
0.287661
0.38171
0.384445
0.379876
0.371233
0.361443
0.351454
0.341668
0.332246
0.323276
0.314797
0.306818
0.299333
0.292328
0.285778
0.279657
0.273935
0.268589
0.263613
0.375351
0.364933
0.352088
0.339757
0.328387
0.317858
0.308049
0.298893
0.290357
0.282408
0.27501
0.268131
0.261734
0.255786
0.250251
0.245099
0.240298
0.235851
0.36315
0.3302
0.310878
0.29683
0.285367
0.27536
0.266322
0.258049
0.250441
0.243428
0.236953
0.230969
0.225432
0.220305
0.215551
0.211141
0.207037
0.203262
0.338595
0.272955
0.249923
0.236562
0.226531
0.218081
0.210586
0.203812
0.197645
0.192008
0.186838
0.182088
0.177717
0.173687
0.169967
0.166531
0.163333
0.160435
0.277118
0.165425
0.142182
0.131305
0.123814
0.117684
0.112314
0.107503
0.103152
0.0991985
0.0955933
0.0922978
0.0892794
0.0865108
0.0839633
0.0816287
0.0794443
0.0775001
0.000107077
0.000730767
0.0014064
0.00195346
0.0024036
0.00287261
0.00336839
0.00392817
0.00458629
0.00536554
0.00627831
0.00732788
0.00850684
0.00979724
0.0111761
0.0126232
0.0141214
0.015658
0.0172212
0.0188042
0.0204017
0.0220128
0.023618
0.0252122
0.0267926
0.0283595
0.0299109
0.0314481
0.0329692
0.0344763
0.0359674
0.037445
0.0389067
0.0403552
0.0417879
0.0432074
0.0446106
0.046
0.047372
0.0487291
0.0500673
0.0513888
0.0526891
0.0539703
0.0552278
0.0564634
0.0576725
0.0588571
0.0600134
0.0611453
0.0622518
0.0633267
0.0643648
0.0653675
0.0663297
0.0672522
0.0681292
0.0689613
0.069743
0.0704748
0.0711513
0.0717727
0.0723344
0.0728366
0.073275
0.0736497
0.0739567
0.0741953
0.0743598
0.0744585
0.0744753
0.0744416
0.0743301
0.0741465
0.073891
0.0735634
0.0731658
0.0726988
0.0721659
0.0715674
0.0709083
0.0701888
0.0694147
0.0685858
0.0677094
0.0667854
0.065821
0.0648165
0.0637774
0.0627054
0.0616029
0.0604752
0.059326
0.0581594
0.0569796
0.0557888
0.0545874
0.0533789
0.0521664
0.0509531
0.0497417
0.0485347
0.0473346
0.0461437
0.0449643
0.0437981
0.042647
0.0415119
0.0403945
0.0392962
0.0382117
0.037138
0.036083
0.0350492
0.0340388
0.0330522
0.0320904
0.0311536
0.0302432
0.0293596
0.0284983
0.027658
0.0268403
0.026046
0.025276
0.0245301
0.023809
0.0231124
0.0224404
0.0217921
0.0211673
0.0205649
0.0199835
0.019422
0.0188806
0.0183589
0.0178569
0.0173741
0.0169106
0.0164656
0.0160385
0.0156286
0.0152351
0.0148575
0.0144954
0.0141484
0.0138161
0.0134982
0.0131941
0.0129033
0.0126253
0.0123597
0.0121061
0.0118642
0.0116339
0.0114145
0.0112052
0.0110056
0.0108155
0.0106344
0.0104619
0.0102976
0.010141
0.00999189
0.00984962
0.00971388
0.00958425
0.00945996
0.00934156
0.00922608
0.00911796
0.0090122
0.00891079
0.00881476
0.00871899
0.008625
0.0085142
0.00841626
0.00828697
0.00763961
0.000625618
0.00361867
0.00587571
0.00744784
0.00870358
0.00981895
0.0109383
0.0121376
0.0134453
0.0148616
0.0163781
0.0179846
0.0196674
0.0214101
0.0231964
0.0250125
0.026847
0.0286913
0.0305383
0.0323834
0.0342234
0.0360561
0.0378788
0.0396912
0.0414932
0.0432853
0.0450674
0.0468402
0.0486032
0.0503571
0.0521012
0.053836
0.055561
0.0572763
0.0589814
0.0606765
0.0623606
0.0640339
0.0656951
0.0673443
0.0689799
0.0706014
0.0722071
0.073796
0.0753659
0.0769153
0.0784412
0.0799416
0.0814123
0.0828498
0.0842483
0.0856109
0.0869378
0.0882275
0.0894764
0.0906819
0.0918401
0.0929479
0.0940013
0.0949972
0.0959314
0.0968008
0.0976016
0.0983307
0.0989848
0.0995612
0.100057
0.10047
0.100799
0.101037
0.101174
0.101225
0.1012
0.101081
0.100872
0.100572
0.100184
0.0997101
0.0991515
0.098511
0.0977918
0.0969968
0.0961301
0.0951949
0.0941959
0.0931369
0.0920227
0.0908573
0.0896454
0.0883905
0.087097
0.0857695
0.0844129
0.0830314
0.0816297
0.0802106
0.0787769
0.0773322
0.0758803
0.0744249
0.0729692
0.0715164
0.0700694
0.0686311
0.0672039
0.0657902
0.0643918
0.0630107
0.0616483
0.0603059
0.0589836
0.057682
0.0564025
0.0551468
0.0539157
0.0527102
0.0515309
0.0503782
0.0492529
0.0481554
0.0470793
0.0460248
0.0449953
0.0439922
0.0430163
0.0420678
0.0411473
0.0402548
0.0393899
0.0385524
0.0377417
0.0369567
0.036195
0.0354566
0.034742
0.0340512
0.0333843
0.0327409
0.0321205
0.0315231
0.0309478
0.0303937
0.0298601
0.0293469
0.0288535
0.0283798
0.0279254
0.0274898
0.0270725
0.0266729
0.0262905
0.025925
0.0255758
0.0252425
0.024924
0.0246202
0.0243309
0.0240556
0.023794
0.0235455
0.0233095
0.0230855
0.0228729
0.0226713
0.0224801
0.0222986
0.0221264
0.0219626
0.0218074
0.0216584
0.0215187
0.0213836
0.0212571
0.0211347
0.0210211
0.0209141
0.0207953
0.0207062
0.0206406
0.0200446
0.00150201
0.00704055
0.0103174
0.0125743
0.014428
0.0161203
0.0177783
0.0194685
0.0212159
0.0230212
0.0248751
0.0267664
0.0286862
0.0306284
0.0325886
0.0345624
0.0365453
0.038534
0.040526
0.0425196
0.0445133
0.0465058
0.048496
0.0504829
0.0524656
0.0544435
0.0564156
0.0583812
0.0603394
0.0622896
0.0642311
0.0661634
0.0680858
0.0699982
0.0718998
0.0737904
0.0756695
0.0775367
0.0793912
0.0812328
0.0830604
0.0848734
0.0866704
0.0884504
0.0902119
0.0919532
0.0936725
0.0953676
0.0970362
0.0986762
0.100285
0.10186
0.103399
0.104899
0.106355
0.107765
0.109124
0.110427
0.111671
0.11285
0.113961
0.115
0.115961
0.11684
0.117634
0.118339
0.118952
0.119469
0.119888
0.120206
0.120411
0.120504
0.12051
0.120408
0.1202
0.119887
0.11947
0.118951
0.118332
0.117617
0.116808
0.115909
0.114925
0.11386
0.112718
0.111505
0.110225
0.108883
0.107485
0.106036
0.10454
0.103003
0.101429
0.0998248
0.0981947
0.0965436
0.0948757
0.0931948
0.0915051
0.0898106
0.0881149
0.0864217
0.0847342
0.0830557
0.0813889
0.0797365
0.0781007
0.0764837
0.0748871
0.0733125
0.0717609
0.0702333
0.068731
0.0672552
0.0658067
0.0643864
0.0629948
0.0616325
0.0602998
0.0589969
0.0577225
0.0564761
0.0552583
0.0540697
0.0529106
0.0517813
0.0506817
0.0496121
0.0485721
0.0475616
0.0465802
0.0456264
0.0446964
0.0437923
0.0429148
0.0420641
0.04124
0.0404423
0.0396706
0.0389247
0.0382034
0.0375057
0.0368312
0.03618
0.0355517
0.0349461
0.0343628
0.0338012
0.0332608
0.0327411
0.0322416
0.031762
0.0313018
0.0308606
0.0304375
0.0300322
0.0296441
0.0292729
0.0289182
0.0285793
0.0282559
0.0279473
0.027653
0.0273724
0.0271049
0.0268499
0.0266069
0.026375
0.0261542
0.0259429
0.0257419
0.0255496
0.0253677
0.0251933
0.0250316
0.0248828
0.0247379
0.0246327
0.0245763
0.024192
0.0025649
0.0102917
0.01444
0.0172197
0.0194592
0.0214616
0.0233772
0.0252833
0.0272144
0.0291799
0.031177
0.0332002
0.0352443
0.0373061
0.0393833
0.0414737
0.0435758
0.0456881
0.0478092
0.0499374
0.0520712
0.0542089
0.0563488
0.0584894
0.0606292
0.0627668
0.0649009
0.0670303
0.0691537
0.0712702
0.0733789
0.0754791
0.0775699
0.0796508
0.0817213
0.0837808
0.0858289
0.087865
0.0898887
0.0918994
0.0938963
0.0958788
0.0978458
0.0997964
0.101729
0.103643
0.105535
0.107405
0.109249
0.111065
0.11285
0.114602
0.116316
0.11799
0.119618
0.121197
0.122721
0.124187
0.125588
0.12692
0.128178
0.129357
0.130451
0.131456
0.132366
0.133179
0.133889
0.134492
0.134986
0.135368
0.13563
0.135762
0.135793
0.135704
0.135496
0.135169
0.134726
0.134167
0.133495
0.132714
0.131826
0.130837
0.12975
0.12857
0.127303
0.125955
0.124529
0.123033
0.121473
0.119853
0.11818
0.116459
0.114697
0.1129
0.111073
0.109221
0.107351
0.105465
0.10357
0.101669
0.0997664
0.0978664
0.0959725
0.0940882
0.0922167
0.0903608
0.088523
0.0867057
0.0849109
0.0831402
0.0813951
0.0796769
0.0779868
0.0763259
0.0746952
0.0730954
0.0715273
0.0699912
0.0684875
0.0670164
0.0655776
0.0641707
0.062796
0.0614536
0.0601436
0.058866
0.0576206
0.0564074
0.0552262
0.0540769
0.052959
0.0518718
0.0508138
0.0497848
0.0487848
0.0478137
0.0468713
0.0459572
0.0450711
0.0442127
0.0433804
0.0425728
0.0417906
0.0410338
0.0403022
0.0395955
0.0389133
0.0382548
0.0376194
0.0370068
0.0364166
0.0358486
0.0353022
0.0347769
0.034272
0.0337872
0.0333219
0.0328756
0.0324478
0.032038
0.0316457
0.0312704
0.0309114
0.0305682
0.0302401
0.0299266
0.0296271
0.0293408
0.0290673
0.0288059
0.0285564
0.0283181
0.0280917
0.0278763
0.0276738
0.0274883
0.0273171
0.0271819
0.0271054
0.0268228
0.00359295
0.0131629
0.0180293
0.0212345
0.0237665
0.0259758
0.028038
0.030048
0.0320558
0.0340842
0.0361409
0.0382263
0.0403383
0.0424745
0.0446327
0.0468107
0.0490069
0.0512195
0.0534466
0.0556865
0.057937
0.0601962
0.0624623
0.0647332
0.0670072
0.0692826
0.0715577
0.073831
0.0761009
0.0783663
0.080626
0.0828788
0.0851237
0.0873601
0.089587
0.0918038
0.0940098
0.0962045
0.0983871
0.100557
0.102714
0.104857
0.106984
0.109095
0.111189
0.113265
0.115319
0.11735
0.119356
0.121334
0.123281
0.125194
0.127068
0.128899
0.130683
0.132416
0.134091
0.135704
0.137249
0.138721
0.140113
0.141421
0.142637
0.143758
0.144778
0.14569
0.146492
0.147178
0.147744
0.148188
0.148505
0.148681
0.148737
0.148666
0.148464
0.148131
0.147669
0.14708
0.146366
0.14553
0.144577
0.143511
0.142337
0.141059
0.139684
0.138217
0.136665
0.135034
0.133331
0.131562
0.129733
0.127851
0.125924
0.123957
0.121957
0.11993
0.117881
0.115815
0.113739
0.111656
0.109571
0.107489
0.105413
0.103347
0.101295
0.0992599
0.0972443
0.0952507
0.0932814
0.0913384
0.0894232
0.0875374
0.0856823
0.083859
0.0820685
0.0803116
0.0785891
0.0769014
0.0752487
0.0736314
0.0720494
0.0705027
0.0689912
0.0675149
0.0660738
0.0646677
0.0632966
0.0619601
0.0606582
0.0593903
0.0581564
0.0569556
0.0557873
0.0546508
0.0535457
0.0524718
0.0514287
0.0504161
0.0494334
0.0484803
0.047556
0.0466594
0.0457902
0.0449482
0.0441332
0.0433446
0.0425822
0.0418447
0.0411314
0.0404425
0.0397778
0.0391369
0.0385194
0.0379245
0.0373518
0.0368008
0.0362711
0.0357621
0.0352733
0.0348042
0.0343542
0.0339229
0.0335096
0.0331137
0.0327346
0.0323717
0.0320244
0.031692
0.0313741
0.0310701
0.0307795
0.0305021
0.030238
0.0299874
0.0297514
0.0295338
0.0293354
0.0291697
0.0290677
0.0288213
0.00447129
0.015485
0.0209252
0.0244765
0.0272462
0.0296204
0.031794
0.0338765
0.0359315
0.0379941
0.0400818
0.0422015
0.0443548
0.0465406
0.0487568
0.0510011
0.0532706
0.0555634
0.057877
0.0602094
0.0625582
0.0649212
0.0672963
0.0696814
0.0720744
0.0744733
0.0768761
0.0792811
0.0816863
0.0840903
0.0864915
0.0888884
0.0912798
0.0936644
0.0960412
0.0984092
0.100767
0.103115
0.105451
0.107776
0.110087
0.112384
0.114666
0.116933
0.119182
0.121411
0.12362
0.125806
0.127966
0.130097
0.132196
0.13426
0.136283
0.138263
0.140194
0.14207
0.143887
0.145639
0.147319
0.148923
0.150442
0.151872
0.153206
0.154437
0.155561
0.156571
0.157462
0.158229
0.158867
0.159374
0.159746
0.15997
0.160058
0.16001
0.159819
0.159488
0.159016
0.158406
0.15766
0.156782
0.155776
0.154646
0.153398
0.152037
0.150568
0.149
0.147338
0.145589
0.14376
0.14186
0.139894
0.137871
0.135797
0.13368
0.131527
0.129343
0.127136
0.12491
0.122672
0.120426
0.118178
0.115932
0.113693
0.111465
0.109251
0.107054
0.104879
0.102727
0.100601
0.0985026
0.0964344
0.0943977
0.092394
0.0904245
0.0884902
0.086592
0.0847307
0.0829066
0.0811202
0.0793718
0.0776613
0.075989
0.0743546
0.0727582
0.0711996
0.0696787
0.0681953
0.0667489
0.0653395
0.0639665
0.0626297
0.0613284
0.0600622
0.0588303
0.0576322
0.0564674
0.0553356
0.0542363
0.0531689
0.052133
0.0511278
0.0501526
0.049207
0.0482903
0.0474023
0.0465425
0.0457103
0.044905
0.0441261
0.043373
0.0426454
0.0419429
0.041265
0.0406108
0.03998
0.0393723
0.0387871
0.0382241
0.0376826
0.0371622
0.0366622
0.0361823
0.0357216
0.0352798
0.0348561
0.03445
0.0340609
0.0336882
0.0333312
0.0329896
0.0326629
0.0323509
0.0320537
0.0317717
0.0315059
0.0312596
0.0310346
0.0308402
0.0307077
0.0304626
0.00514861
0.0172305
0.0231033
0.0269261
0.0298914
0.0324105
0.0346879
0.0368424
0.0389464
0.0410438
0.0431599
0.0453077
0.0474929
0.0497166
0.0519774
0.054273
0.056601
0.058959
0.0613446
0.0637552
0.0661885
0.0686422
0.0711138
0.0736012
0.0761021
0.0786141
0.0811352
0.0836631
0.0861958
0.0887312
0.0912674
0.0938026
0.0963351
0.0988632
0.101385
0.103901
0.106407
0.108904
0.111391
0.113866
0.116328
0.118777
0.12121
0.123627
0.126027
0.128406
0.130764
0.133098
0.135406
0.137683
0.139928
0.142135
0.144301
0.146421
0.14849
0.150503
0.152454
0.154337
0.156145
0.157872
0.159512
0.161058
0.162503
0.16384
0.165064
0.166167
0.167145
0.167992
0.168702
0.169273
0.1697
0.169974
0.170099
0.170078
0.169906
0.169582
0.169108
0.168486
0.167718
0.166808
0.16576
0.164578
0.163268
0.161836
0.160289
0.158633
0.156876
0.155025
0.153089
0.151073
0.148988
0.14684
0.144638
0.142388
0.140099
0.137776
0.135427
0.133058
0.130675
0.128284
0.125889
0.123496
0.12111
0.118735
0.116374
0.114032
0.111712
0.109416
0.107148
0.104909
0.102702
0.100528
0.0983895
0.096287
0.0942219
0.0921951
0.0902073
0.0882592
0.0863512
0.0844834
0.0826562
0.0808695
0.0791233
0.0774176
0.0757523
0.074127
0.0725415
0.0709956
0.0694887
0.0680206
0.0665909
0.0651989
0.0638442
0.0625261
0.061244
0.0599974
0.0587858
0.0576086
0.0564652
0.0553551
0.0542776
0.0532322
0.052218
0.0512347
0.0502816
0.0493583
0.0484642
0.0475986
0.0467611
0.0459509
0.0451676
0.0444107
0.0436797
0.0429739
0.0422928
0.0416358
0.0410025
0.0403924
0.0398047
0.0392391
0.0386952
0.0381722
0.0376697
0.0371871
0.0367238
0.0362792
0.0358527
0.0354438
0.0350519
0.0346765
0.0343172
0.0339739
0.0336467
0.0333361
0.033043
0.0327702
0.03252
0.0322987
0.0321326
0.0318829
0.00561749
0.0184382
0.0246133
0.0286392
0.0317633
0.0344107
0.0367895
0.0390222
0.0411852
0.0433277
0.0454802
0.0476607
0.0498781
0.0521359
0.0544347
0.0567735
0.0591507
0.0615641
0.0640112
0.0664898
0.0689975
0.071532
0.0740907
0.0766715
0.0792717
0.0818891
0.084521
0.0871652
0.0898191
0.0924803
0.0951465
0.0978154
0.100485
0.103152
0.105817
0.108476
0.111128
0.113773
0.116407
0.119031
0.121641
0.124238
0.12682
0.129385
0.131931
0.134456
0.136958
0.139436
0.141884
0.144302
0.146684
0.149028
0.151328
0.15358
0.155779
0.157919
0.159995
0.161999
0.163926
0.165769
0.16752
0.169174
0.170722
0.172158
0.173475
0.174667
0.175727
0.176649
0.177429
0.178061
0.178542
0.178867
0.179031
0.17904
0.17889
0.17858
0.17811
0.177483
0.176701
0.175768
0.174687
0.173464
0.172105
0.170616
0.169004
0.167275
0.165438
0.163501
0.161472
0.159359
0.157171
0.154915
0.152601
0.150235
0.147826
0.145382
0.142908
0.140412
0.137901
0.13538
0.132854
0.13033
0.127812
0.125305
0.122813
0.12034
0.117889
0.115463
0.113066
0.1107
0.108367
0.106069
0.103807
0.101584
0.0993997
0.0972558
0.0951528
0.0930916
0.0910726
0.089096
0.0871621
0.085271
0.0834228
0.0816172
0.0798542
0.0781335
0.0764548
0.0748179
0.0732222
0.0716673
0.0701528
0.0686782
0.0672429
0.0658463
0.0644878
0.0631667
0.0618825
0.0606346
0.0594223
0.0582451
0.0571023
0.0559932
0.0549172
0.0538737
0.052862
0.0518815
0.0509318
0.0500121
0.0491218
0.0482603
0.047427
0.0466215
0.045843
0.0450911
0.044365
0.0436642
0.0429882
0.0423363
0.0417079
0.0411025
0.0405195
0.0399584
0.0394185
0.0388995
0.0384007
0.0379215
0.0374613
0.0370196
0.0365959
0.0361898
0.0358009
0.035429
0.0350742
0.0347371
0.0344185
0.0341208
0.0338464
0.0336
0.0334005
0.0331399
0.00589376
0.019179
0.025543
0.0297114
0.0329586
0.0357161
0.0381913
0.0405055
0.0427362
0.0449347
0.0471339
0.0493541
0.0516075
0.0539005
0.0562361
0.0586151
0.0610366
0.0634994
0.0660015
0.0685412
0.0711161
0.0737242
0.076363
0.0790303
0.0817235
0.08444
0.0871771
0.0899322
0.0927024
0.095485
0.098277
0.101076
0.103879
0.106683
0.109488
0.112289
0.115085
0.117875
0.120655
0.123425
0.126183
0.128926
0.131652
0.134361
0.13705
0.139716
0.142357
0.144971
0.147555
0.150105
0.152617
0.155087
0.157512
0.159886
0.162203
0.164459
0.166647
0.168761
0.170794
0.17274
0.174591
0.17634
0.17798
0.179504
0.180904
0.182175
0.183308
0.1843
0.185142
0.185832
0.186364
0.186734
0.186938
0.186979
0.186852
0.186558
0.186097
0.18547
0.184681
0.183733
0.182629
0.181377
0.17998
0.178446
0.176782
0.174995
0.173094
0.171087
0.168982
0.166788
0.164513
0.162167
0.159757
0.157293
0.154782
0.152232
0.149651
0.147045
0.144422
0.141787
0.139147
0.136507
0.133873
0.131249
0.12864
0.126051
0.123483
0.120942
0.11843
0.11595
0.113504
0.111094
0.108722
0.106389
0.104097
0.101847
0.09964
0.0974762
0.0953564
0.093281
0.0912502
0.0892642
0.0873229
0.0854264
0.0835744
0.0817667
0.0800031
0.0782831
0.0766063
0.0749723
0.0733806
0.0718307
0.0703219
0.0688537
0.0674255
0.0660366
0.0646863
0.063374
0.0620991
0.0608609
0.0596587
0.0584918
0.0573596
0.0562615
0.0551966
0.0541645
0.0531645
0.0521959
0.051258
0.0503503
0.049472
0.0486226
0.0478015
0.047008
0.0462415
0.0455013
0.0447869
0.0440977
0.0434329
0.042792
0.0421743
0.0415793
0.0410063
0.0404547
0.039924
0.0394135
0.0389227
0.0384513
0.0379988
0.0375646
0.0371483
0.03675
0.0363697
0.0360078
0.0356653
0.0353441
0.0350464
0.0347759
0.034545
0.0342764
0.00599987
0.0195301
0.0259899
0.0302478
0.0335854
0.0364338
0.0389973
0.0413931
0.0436965
0.0459575
0.04821
0.0504764
0.0527713
0.0551035
0.0574779
0.059897
0.0623615
0.064871
0.0674248
0.0700214
0.0726592
0.0753363
0.0780506
0.0807998
0.0835815
0.0863929
0.0892312
0.0920936
0.0949766
0.0978772
0.100792
0.103719
0.106653
0.109593
0.112536
0.115477
0.118416
0.121349
0.124274
0.127189
0.13009
0.132976
0.135845
0.138693
0.141519
0.144321
0.147094
0.149837
0.152546
0.155219
0.157849
0.160435
0.162971
0.165453
0.167874
0.17023
0.172515
0.174722
0.176844
0.178876
0.180809
0.182637
0.184353
0.185949
0.187418
0.188753
0.189948
0.190996
0.191892
0.19263
0.193206
0.193616
0.193856
0.193925
0.193822
0.193545
0.193095
0.192473
0.191683
0.190727
0.18961
0.188337
0.186915
0.185349
0.183648
0.181818
0.179868
0.177806
0.175642
0.173383
0.17104
0.168621
0.166134
0.163589
0.160993
0.158356
0.155684
0.152986
0.150268
0.147537
0.144799
0.14206
0.139326
0.136601
0.133891
0.1312
0.128531
0.125889
0.123276
0.120695
0.118149
0.11564
0.11317
0.110741
0.108353
0.106008
0.103708
0.101452
0.0992423
0.0970781
0.0949602
0.0928887
0.0908636
0.088885
0.0869526
0.0850663
0.0832258
0.0814306
0.0796804
0.0779747
0.076313
0.0746948
0.0731194
0.0715863
0.0700948
0.0686443
0.067234
0.0658633
0.0645316
0.063238
0.061982
0.0607628
0.0595797
0.0584321
0.0573191
0.0562403
0.0551948
0.0541819
0.0532011
0.0522516
0.0513327
0.0504438
0.0495842
0.0487533
0.0479504
0.0471748
0.0464259
0.045703
0.0450055
0.0443327
0.0436839
0.0430585
0.0424558
0.0418753
0.0413162
0.0407779
0.0402599
0.0397616
0.0392827
0.0388227
0.0383811
0.0379584
0.0375544
0.0371694
0.0368042
0.0364606
0.0361404
0.0358467
0.0355871
0.0353039
0.00595502
0.0195203
0.0260091
0.0303289
0.0337418
0.0366723
0.0393183
0.0417913
0.0441656
0.0464912
0.0488019
0.0511204
0.0534624
0.0558384
0.0582553
0.0607171
0.0632259
0.0657828
0.0683878
0.0710405
0.0737399
0.0764844
0.0792724
0.0821017
0.08497
0.0878745
0.0908123
0.0937801
0.0967743
0.0997916
0.102829
0.105882
0.108947
0.112021
0.115101
0.118183
0.121263
0.124338
0.127405
0.130462
0.133504
0.136529
0.139535
0.142517
0.145474
0.148402
0.151299
0.15416
0.156983
0.159764
0.162499
0.165183
0.167813
0.170384
0.17289
0.175325
0.177685
0.179963
0.182153
0.184248
0.186241
0.188126
0.189895
0.191542
0.193059
0.19444
0.195678
0.196767
0.197701
0.198475
0.199084
0.199524
0.199792
0.199885
0.199804
0.199543
0.199105
0.198491
0.197704
0.196748
0.195626
0.194344
0.192907
0.191322
0.189597
0.187739
0.185755
0.183656
0.18145
0.179145
0.17675
0.174276
0.17173
0.169123
0.166462
0.163755
0.161012
0.15824
0.155445
0.152635
0.149817
0.146997
0.14418
0.141372
0.138577
0.1358
0.133046
0.130317
0.127618
0.124951
0.12232
0.119725
0.11717
0.114656
0.112185
0.109758
0.107376
0.10504
0.102751
0.100508
0.0983134
0.0961662
0.0940668
0.0920152
0.0900114
0.088055
0.0861458
0.0842835
0.0824676
0.0806978
0.0789734
0.0772939
0.0756588
0.0740674
0.072519
0.0710131
0.0695489
0.0681256
0.0667427
0.0653993
0.0640948
0.0628285
0.0615996
0.0604074
0.0592511
0.0581301
0.0570437
0.055991
0.0549715
0.0539844
0.053029
0.0521046
0.0512104
0.0503459
0.0495103
0.0487028
0.0479229
0.0471698
0.0464428
0.0457413
0.0450645
0.0444118
0.0437825
0.0431758
0.0425913
0.0420281
0.0414857
0.0409635
0.0404611
0.039978
0.0395138
0.0390686
0.0386424
0.0382355
0.0378488
0.037484
0.0371421
0.0368261
0.0365401
0.0362398
0.00583845
0.0193702
0.0258344
0.0301631
0.0336034
0.0365746
0.0392712
0.0418031
0.0442447
0.0466372
0.0490109
0.0513872
0.0537807
0.0562057
0.0586701
0.0611793
0.0637369
0.0663451
0.069005
0.0717168
0.0744804
0.0772947
0.0801585
0.08307
0.0860266
0.0890257
0.092064
0.0951382
0.0982447
0.10138
0.10454
0.10772
0.110917
0.114126
0.117343
0.120564
0.123784
0.127
0.130207
0.133401
0.136579
0.139738
0.142873
0.14598
0.149058
0.152101
0.155107
0.158071
0.160991
0.163863
0.166681
0.169443
0.172144
0.174779
0.177343
0.179832
0.182239
0.184559
0.186787
0.188916
0.19094
0.192853
0.194648
0.196318
0.197857
0.199259
0.200517
0.201625
0.202578
0.20337
0.203997
0.204455
0.204741
0.204851
0.204786
0.20454
0.204113
0.203509
0.20273
0.201779
0.20066
0.199378
0.197938
0.196347
0.194612
0.19274
0.19074
0.18862
0.186389
0.184055
0.181629
0.179118
0.176533
0.173883
0.171175
0.16842
0.165624
0.162797
0.159945
0.157076
0.154197
0.151313
0.148431
0.145556
0.142694
0.139849
0.137025
0.134227
0.131458
0.12872
0.126018
0.123352
0.120726
0.118142
0.115601
0.113104
0.110652
0.108248
0.10589
0.103581
0.101319
0.099107
0.0969432
0.0948284
0.0927623
0.0907448
0.0887756
0.0868545
0.084981
0.0831548
0.0813752
0.0796417
0.0779539
0.076311
0.0747123
0.0731573
0.0716453
0.0701754
0.068747
0.0673594
0.0660118
0.0647035
0.0634337
0.0622018
0.0610069
0.0598484
0.0587254
0.0576373
0.0565832
0.0555625
0.0545744
0.0536183
0.0526932
0.0517986
0.0509337
0.0500977
0.0492901
0.0485099
0.0477565
0.0470292
0.0463273
0.04565
0.0449967
0.0443666
0.0437591
0.0431735
0.0426091
0.0420654
0.0415418
0.0410379
0.0405534
0.040088
0.0396419
0.0392152
0.0388087
0.0384235
0.0380609
0.0377233
0.0374128
0.0370947
0.00562803
0.0190165
0.0254162
0.0297468
0.0332173
0.0362368
0.0389924
0.0415868
0.0440822
0.0465272
0.0489536
0.051384
0.0538349
0.0563177
0.058837
0.0614017
0.0640166
0.0666847
0.0694081
0.0721878
0.075024
0.0779163
0.0808635
0.0838638
0.086915
0.0900142
0.0931586
0.0963446
0.0995684
0.102826
0.106113
0.109424
0.112754
0.116099
0.119453
0.122812
0.12617
0.129522
0.132863
0.136189
0.139495
0.142777
0.146029
0.149249
0.152431
0.155571
0.158667
0.161713
0.164706
0.167643
0.170518
0.173328
0.176069
0.178736
0.181326
0.183832
0.186251
0.188578
0.190808
0.192935
0.194953
0.196858
0.198644
0.200304
0.201833
0.203225
0.204475
0.205576
0.206524
0.207314
0.207941
0.208401
0.208691
0.208808
0.208753
0.208517
0.2081
0.207506
0.206738
0.205799
0.20469
0.203417
0.201985
0.2004
0.198669
0.196799
0.194798
0.192674
0.190436
0.188093
0.185654
0.183127
0.180523
0.177849
0.175116
0.172331
0.169504
0.166642
0.163753
0.160844
0.157923
0.154995
0.152068
0.149145
0.146234
0.143338
0.140463
0.137612
0.134788
0.131996
0.129239
0.126518
0.123836
0.121195
0.118597
0.116044
0.113536
0.111075
0.108662
0.106297
0.103981
0.101714
0.0994967
0.0973287
0.0952102
0.093141
0.091121
0.0891499
0.0872273
0.0853527
0.0835258
0.081746
0.0800127
0.0783253
0.0766832
0.0750857
0.073532
0.0720216
0.0705536
0.0691274
0.0677422
0.0663972
0.0650917
0.0638249
0.0625962
0.0614046
0.0602495
0.0591301
0.0580456
0.0569953
0.0559784
0.0549941
0.0540417
0.0531204
0.0522296
0.0513683
0.0505359
0.0497317
0.0489548
0.0482045
0.0474801
0.0467808
0.046106
0.0454548
0.0448267
0.0442208
0.0436366
0.0430735
0.0425308
0.0420081
0.041505
0.0410214
0.0405571
0.0401124
0.0396878
0.0392842
0.0389025
0.0385447
0.0382115
0.0378754
0.00535511
0.0184851
0.0248084
0.0291293
0.0326197
0.0356771
0.0384836
0.0411395
0.0437077
0.0462286
0.0487314
0.0512364
0.053757
0.0563065
0.0588922
0.0615263
0.0642139
0.0669582
0.0697616
0.0726253
0.0755499
0.0785351
0.08158
0.084683
0.087842
0.0910544
0.0943167
0.0976254
0.100976
0.104364
0.107783
0.111229
0.114696
0.118178
0.121668
0.125162
0.128652
0.132133
0.135599
0.139044
0.142463
0.14585
0.149201
0.15251
0.155772
0.158984
0.162141
0.165238
0.168272
0.171238
0.174133
0.176953
0.179694
0.182353
0.184925
0.187406
0.189793
0.192083
0.19427
0.19635
0.19832
0.200175
0.20191
0.203521
0.205003
0.20635
0.207558
0.208622
0.209537
0.210301
0.210906
0.211351
0.21163
0.211743
0.211688
0.211457
0.211046
0.210463
0.209708
0.208784
0.207692
0.206438
0.205025
0.203458
0.201744
0.199891
0.197906
0.195796
0.19357
0.191236
0.188803
0.18628
0.183677
0.181001
0.178263
0.17547
0.172631
0.169755
0.16685
0.163922
0.16098
0.158028
0.155075
0.152124
0.149182
0.146255
0.143346
0.14046
0.1376
0.13477
0.131974
0.129213
0.126491
0.123809
0.121169
0.118574
0.116023
0.11352
0.111063
0.108655
0.106296
0.103987
0.101726
0.099516
0.0973554
0.0952446
0.0931833
0.0911714
0.0892086
0.0872944
0.0854284
0.0836101
0.0818391
0.0801146
0.078436
0.0768028
0.0752142
0.0736695
0.0721681
0.0707091
0.0692918
0.0679156
0.0665796
0.065283
0.0640251
0.0628052
0.0616224
0.060476
0.0593652
0.0582892
0.0572472
0.0562385
0.0552623
0.0543177
0.0534041
0.0525207
0.0516666
0.0508411
0.0500434
0.0492728
0.0485284
0.0478096
0.0471156
0.0464456
0.045799
0.0451749
0.0445728
0.0439921
0.043432
0.0428923
0.0423724
0.0418721
0.0413912
0.04093
0.0404888
0.0400682
0.039669
0.0392928
0.0389393
0.0385865
0.0050587
0.0178193
0.0240915
0.0284117
0.031928
0.0350292
0.0378931
0.0406171
0.0432612
0.0458652
0.0484565
0.0510553
0.0536753
0.0563243
0.0590067
0.0617375
0.0645236
0.0673698
0.0702795
0.0732543
0.0762945
0.0793995
0.0825683
0.085799
0.0890892
0.092436
0.0958355
0.0992832
0.102774
0.106302
0.109862
0.113448
0.117051
0.120667
0.124288
0.127906
0.131516
0.135109
0.13868
0.142222
0.145728
0.149193
0.15261
0.155974
0.159281
0.162524
0.1657
0.168805
0.171833
0.174782
0.177649
0.180428
0.183119
0.185716
0.188218