/*--------------------------------*- C++ -*----------------------------------*\
  =========                 |
  \\      /  F ield         | OpenFOAM: The Open Source CFD Toolbox
   \\    /   O peration     | Website:  https://openfoam.org
    \\  /    A nd           | Version:  10
     \\/     M anipulation  |
\*---------------------------------------------------------------------------*/
FoamFile
{
    format      ascii;
    class       volScalarField;
    location    "100";
    object      nut;
}
// * * * * * * * * * * * * * * * * * * * * * * * * * * * * * * * * * * * * * //

dimensions      [0 2 -1 0 0 0 0];

internalField   nonuniform List<scalar> 
12225
(
2.66869e-05
1.33563e-05
1.14697e-05
1.06182e-05
1.00228e-05
9.527e-06
9.09357e-06
8.70832e-06
8.36297e-06
8.05195e-06
7.771e-06
7.51676e-06
7.28662e-06
7.07871e-06
6.89242e-06
6.72959e-06
6.58852e-06
6.58507e-06
0.000154686
0.0001167
0.000110638
0.000106658
0.000103542
0.000100801
9.83148e-05
9.60342e-05
9.39315e-05
9.1988e-05
9.01896e-05
8.85254e-05
8.69877e-05
8.55716e-05
8.42891e-05
8.31154e-05
8.23646e-05
8.13958e-05
0.000330884
0.000254482
0.00023861
0.000230169
0.000223857
0.000218354
0.000213328
0.000208664
0.000204312
0.000200242
0.000196432
0.000192871
0.000189548
0.000186461
0.00018364
0.000181068
0.000179289
0.000177042
0.000496384
0.000391468
0.000363049
0.000349788
0.000340463
0.00033257
0.000325441
0.000318839
0.000312669
0.000306878
0.000301437
0.000296329
0.000291543
0.000287078
0.000282964
0.000279217
0.000276317
0.000273343
0.000628828
0.000515815
0.000479264
0.000460359
0.000448431
0.000438572
0.000429787
0.000421699
0.000414143
0.000407045
0.000400365
0.000394079
0.000388173
0.000382642
0.000377514
0.000372823
0.000368908
0.00036523
0.000725428
0.000622346
0.000583628
0.000560821
0.000546494
0.000535092
0.000525059
0.000515874
0.000507311
0.000499266
0.000491684
0.000484535
0.000477801
0.000471476
0.000465578
0.000460151
0.000455408
0.00045104
0.000790596
0.000709491
0.000673204
0.000650757
0.000633987
0.00062166
0.000610814
0.000600907
0.000591678
0.000583
0.000574808
0.000567069
0.000559762
0.000552878
0.00054643
0.00054046
0.000535091
0.000530125
0.00083078
0.000777993
0.00074632
0.000728533
0.00071066
0.000697926
0.000686771
0.00067655
0.000667
0.000657992
0.000649463
0.000641386
0.000633739
0.000626513
0.000619718
0.000613389
0.000607596
0.000602183
0.000853128
0.000827464
0.000804938
0.000790825
0.000776502
0.000763402
0.000752604
0.000742547
0.000733056
0.000724039
0.000715453
0.000707291
0.000699534
0.000692177
0.000685233
0.00067873
0.000672704
0.000667021
0.000863397
0.000860081
0.000848906
0.000838112
0.000829516
0.000817633
0.000807908
0.000798557
0.000789559
0.00078089
0.000772551
0.000764577
0.000756954
0.000749689
0.000742798
0.000736312
0.000730246
0.000724476
0.00086602
0.000878392
0.000878162
0.000873143
0.000868531
0.000860049
0.000851702
0.000843823
0.000835941
0.000828132
0.000820464
0.000812989
0.000805768
0.000798834
0.000792216
0.00078595
0.000780042
0.000774377
0.000864418
0.000885129
0.000892457
0.000893434
0.000892221
0.000887904
0.000881666
0.000875484
0.000868868
0.000862124
0.000855406
0.000848752
0.000842229
0.000835893
0.000829791
0.000823936
0.000818366
0.000812981
0.000862642
0.000884237
0.000897664
0.000904117
0.000906358
0.000905522
0.000902916
0.000898759
0.000893829
0.000888436
0.000882797
0.000877064
0.00087134
0.000865706
0.000860224
0.000854974
0.000849957
0.00084505
0.000861202
0.000877722
0.000894012
0.000905345
0.00091084
0.000913763
0.000915629
0.000914132
0.000911513
0.000908112
0.000904192
0.000899953
0.000895541
0.000891066
0.000886611
0.000882231
0.000877972
0.000873727
0.000857335
0.00087008
0.000884193
0.000895855
0.000904365
0.000911174
0.000915892
0.000917735
0.000918065
0.000917285
0.000915701
0.000913549
0.000911007
0.000908213
0.00090527
0.000902258
0.000899236
0.00089611
0.00085436
0.000861264
0.000870399
0.000880024
0.000888823
0.00089655
0.00090294
0.000907662
0.000910946
0.000913068
0.000914253
0.0009147
0.000914572
0.000914005
0.000913107
0.000911967
0.000910661
0.000909109
0.000852302
0.000854207
0.000858013
0.000863286
0.000869323
0.000875617
0.000881803
0.000887541
0.000892648
0.000897038
0.000900721
0.000903744
0.000906171
0.000908074
0.000909521
0.000910578
0.000911313
0.00091166
0.000851229
0.000850445
0.000851055
0.000853077
0.000856298
0.000860447
0.000865241
0.000870383
0.000875612
0.000880716
0.000885546
0.000890005
0.000894036
0.000897619
0.000900752
0.000903456
0.000905762
0.000907694
0.000851524
0.000851382
0.0008527
0.000855405
0.000859199
0.000863769
0.000868807
0.000874016
0.000879155
0.000884052
0.000888595
0.000892717
0.000896388
0.000899605
0.00090238
0.000904737
0.000906697
0.000908333
0.000853597
0.000858517
0.00086565
0.000873659
0.000881614
0.000889038
0.000895568
0.000900896
0.000905063
0.000908187
0.000910415
0.000911893
0.000912755
0.000913116
0.000913073
0.000912704
0.000912072
0.00091131
0.000857228
0.000869148
0.00088336
0.00089457
0.00090337
0.000910419
0.000915222
0.000917343
0.000917942
0.000917405
0.000916029
0.000914051
0.000911652
0.000908967
0.000906097
0.000903118
0.000900087
0.000897117
0.000862716
0.000878543
0.000896193
0.000905235
0.000909738
0.000910796
0.000910509
0.000907714
0.000903959
0.000899578
0.000894784
0.000889774
0.000884683
0.000879598
0.000874577
0.00086966
0.000864884
0.000860332
0.000864646
0.000882955
0.000888698
0.000887939
0.000885871
0.000880588
0.000873106
0.000866307
0.000859236
0.000852112
0.000845192
0.00083845
0.000831878
0.000825491
0.00081931
0.000813348
0.000807625
0.000802193
0.000862599
0.000858972
0.000847772
0.00083619
0.000827754
0.000815882
0.000806361
0.000797325
0.000788615
0.000780197
0.000772002
0.000764073
0.000756452
0.000749161
0.000742199
0.000735564
0.000729258
0.000723322
0.000840178
0.000798203
0.0007696
0.00075375
0.000736733
0.000723763
0.000712674
0.000702442
0.000692863
0.00068382
0.000675221
0.000667069
0.000659344
0.000652011
0.000645046
0.000638435
0.000632175
0.000626315
0.000780031
0.000694808
0.000658715
0.000635234
0.000618303
0.000605937
0.000595215
0.000585437
0.00057633
0.000567779
0.000559703
0.000552072
0.000544859
0.000538036
0.000531585
0.000525481
0.00051971
0.000514339
0.000661795
0.000551314
0.000513473
0.000491452
0.0004787
0.000468307
0.000459156
0.000450787
0.000443002
0.000435692
0.000428799
0.000422292
0.00041615
0.000410351
0.000404877
0.000399705
0.000394821
0.00039031
0.000476675
0.000372809
0.000345029
0.000332032
0.000323136
0.000315658
0.000308911
0.000302674
0.000296854
0.000291397
0.000286268
0.000281444
0.000276907
0.000272638
0.000268623
0.000264838
0.000261273
0.000258013
0.000245014
0.000182903
0.000171341
0.000164932
0.000160122
0.000155945
0.000152143
0.00014864
0.000145399
0.000142391
0.000139594
0.000136991
0.000134565
0.000132303
0.000130193
0.000128219
0.000126369
0.000124701
5.50642e-05
3.28705e-05
2.8252e-05
2.60907e-05
2.46023e-05
2.33842e-05
2.23172e-05
2.13612e-05
2.04967e-05
1.97111e-05
1.89948e-05
1.834e-05
1.77403e-05
1.71901e-05
1.6684e-05
1.62201e-05
1.57861e-05
1.53998e-05
3.30626e-08
1.0312e-06
1.98509e-06
2.75745e-06
3.38771e-06
4.04296e-06
4.73197e-06
5.50641e-06
6.41372e-06
7.48645e-06
8.74187e-06
1.01864e-05
1.181e-05
1.35897e-05
1.54929e-05
1.74919e-05
1.95613e-05
2.16839e-05
2.38415e-05
2.60251e-05
2.82255e-05
3.04421e-05
3.26493e-05
3.48378e-05
3.70031e-05
3.9146e-05
4.12628e-05
4.33559e-05
4.54221e-05
4.74645e-05
4.94802e-05
5.14726e-05
5.34385e-05
5.53815e-05
5.72981e-05
5.91918e-05
6.10586e-05
6.29018e-05
6.47168e-05
6.65067e-05
6.82664e-05
6.99987e-05
7.1698e-05
7.3367e-05
7.49994e-05
7.65979e-05
7.81562e-05
7.96771e-05
8.11552e-05
8.25955e-05
8.39966e-05
8.53545e-05
8.66587e-05
8.79121e-05
8.91079e-05
9.02472e-05
9.13229e-05
9.23358e-05
9.32789e-05
9.41528e-05
9.49509e-05
9.56735e-05
9.63148e-05
9.68751e-05
9.7349e-05
9.77365e-05
9.80317e-05
9.82316e-05
9.83654e-05
9.8398e-05
9.82666e-05
9.81178e-05
9.78586e-05
9.75051e-05
9.70576e-05
9.65157e-05
9.58817e-05
9.51573e-05
9.43465e-05
9.34509e-05
9.24761e-05
9.14236e-05
9.03003e-05
8.91072e-05
8.78528e-05
8.65382e-05
8.51721e-05
8.37557e-05
8.22963e-05
8.07964e-05
7.92597e-05
7.76928e-05
7.61006e-05
7.44877e-05
7.28612e-05
7.12245e-05
6.9577e-05
6.79235e-05
6.6268e-05
6.46148e-05
6.29673e-05
6.1329e-05
5.97033e-05
5.80927e-05
5.65008e-05
5.49292e-05
5.33807e-05
5.18563e-05
5.03582e-05
4.88874e-05
4.74448e-05
4.60161e-05
4.46135e-05
4.32407e-05
4.19008e-05
4.05944e-05
3.93228e-05
3.80855e-05
3.68845e-05
3.5721e-05
3.45901e-05
3.34884e-05
3.24177e-05
3.13788e-05
3.03731e-05
2.93999e-05
2.846e-05
2.7553e-05
2.66791e-05
2.58367e-05
2.50258e-05
2.4245e-05
2.34925e-05
2.27665e-05
2.2067e-05
2.13935e-05
2.07459e-05
2.01234e-05
1.95259e-05
1.89526e-05
1.84027e-05
1.78749e-05
1.73685e-05
1.68825e-05
1.64164e-05
1.59697e-05
1.55418e-05
1.5132e-05
1.47399e-05
1.43645e-05
1.40054e-05
1.36618e-05
1.33332e-05
1.30193e-05
1.27198e-05
1.24337e-05
1.21602e-05
1.18987e-05
1.16489e-05
1.14102e-05
1.11821e-05
1.0964e-05
1.07555e-05
1.0556e-05
1.0365e-05
1.01818e-05
1.00064e-05
9.83722e-06
9.67572e-06
9.51681e-06
9.37001e-06
9.22259e-06
9.07697e-06
8.94561e-06
8.81355e-06
8.68244e-06
8.53419e-06
8.40422e-06
8.23029e-06
7.56668e-06
1.93158e-07
1.03767e-05
2.68989e-05
3.80489e-05
4.41974e-05
4.74043e-05
4.95344e-05
5.15173e-05
5.37002e-05
5.61642e-05
5.89373e-05
6.20692e-05
6.56471e-05
6.9632e-05
7.39152e-05
7.84268e-05
8.31404e-05
8.80785e-05
9.32117e-05
9.85072e-05
0.000103934
0.000109466
0.000115081
0.000120755
0.000126466
0.000132197
0.000137931
0.000143656
0.000149359
0.000155033
0.000160669
0.000166262
0.000171809
0.000177306
0.000182752
0.000188147
0.000193489
0.000198779
0.000204017
0.000209202
0.000214335
0.000219413
0.000224434
0.000229395
0.000234291
0.000239113
0.000243849
0.000248481
0.000252981
0.000257305
0.000261379
0.000265297
0.000269111
0.00027282
0.00027642
0.000279902
0.000283259
0.000286482
0.000289561
0.000292488
0.000295254
0.000297848
0.000300263
0.000302489
0.000304518
0.000306343
0.00030796
0.000309368
0.000310585
0.000311521
0.000312181
0.000312567
0.000312814
0.000312809
0.000312563
0.000312079
0.00031136
0.000310409
0.000309232
0.000307834
0.000306222
0.000304403
0.000302385
0.000300178
0.00029779
0.000295233
0.000292516
0.000289651
0.000286649
0.000283521
0.00028028
0.000276934
0.000273492
0.000269965
0.000266369
0.000262711
0.000258995
0.000255231
0.00025143
0.000247602
0.000243758
0.000239904
0.00023605
0.000232203
0.00022837
0.000224556
0.000220767
0.000217008
0.000213285
0.000209598
0.000205967
0.000202388
0.000198861
0.000195387
0.000191967
0.000188602
0.000185294
0.000182041
0.000178883
0.000175796
0.00017274
0.000169718
0.000166747
0.000163834
0.000160983
0.000158192
0.000155469
0.000152815
0.000150227
0.000147702
0.000145237
0.000142827
0.000140458
0.000138137
0.00013587
0.000133658
0.000131502
0.000129402
0.000127355
0.000125361
0.000123419
0.000121524
0.000119676
0.000117876
0.000116123
0.000114418
0.00011276
0.00011115
0.000109584
0.000108062
0.000106583
0.000105147
0.000103753
0.0001024
0.000101074
9.97826e-05
9.85287e-05
9.73129e-05
9.61348e-05
9.49935e-05
9.38875e-05
9.28155e-05
9.1776e-05
9.07667e-05
8.97862e-05
8.88315e-05
8.79011e-05
8.69895e-05
8.61028e-05
8.52048e-05
8.43795e-05
8.34928e-05
8.27206e-05
8.17751e-05
8.10223e-05
7.99813e-05
7.87911e-05
7.73455e-05
7.59784e-05
6.89685e-05
4.6299e-07
2.01614e-05
4.85149e-05
6.96076e-05
8.38676e-05
9.32752e-05
9.97196e-05
0.000104704
0.000109243
0.000113916
0.000118997
0.000124569
0.000130575
0.000137028
0.000143994
0.000151492
0.000159448
0.000167763
0.000176371
0.000185218
0.000194252
0.000203426
0.000212696
0.000222025
0.000231375
0.000240717
0.000250025
0.000259279
0.000268463
0.000277563
0.000286571
0.000295478
0.000304283
0.000312981
0.000321572
0.000330056
0.000338433
0.000346705
0.000354872
0.000362934
0.000370891
0.000378742
0.000386484
0.000394112
0.000401619
0.000408996
0.000416231
0.000423307
0.00043021
0.00043692
0.000443431
0.000449771
0.000455954
0.000461977
0.000467832
0.000473507
0.00047899
0.000484269
0.000489331
0.000494162
0.000498748
0.000503076
0.000507133
0.000510906
0.000514382
0.00051755
0.000520401
0.000522926
0.000525125
0.000527021
0.000528498
0.000529466
0.000530238
0.000530637
0.000530667
0.000530332
0.000529634
0.000528579
0.000527171
0.00052542
0.000523332
0.000520919
0.000518191
0.000515161
0.000511841
0.000508247
0.000504393
0.000500295
0.000495969
0.000491433
0.000486701
0.000481789
0.000476711
0.000471482
0.000466118
0.000460636
0.000455048
0.000449368
0.000443613
0.000437796
0.000431932
0.000426033
0.000420113
0.000414182
0.000408251
0.00040233
0.000396427
0.000390551
0.000384709
0.000378908
0.000373161
0.000367477
0.000361856
0.000356303
0.000350819
0.000345405
0.000340064
0.000334797
0.000329624
0.000324539
0.000319532
0.0003146
0.000309745
0.000304971
0.00030028
0.000295672
0.000291168
0.000286782
0.000282492
0.000278288
0.000274164
0.000270107
0.000266078
0.000262114
0.00025823
0.000254428
0.000250706
0.000247063
0.000243494
0.000240004
0.000236584
0.000233226
0.00022993
0.0002267
0.00022354
0.000220449
0.000217429
0.000214475
0.000211586
0.000208761
0.000206
0.000203304
0.000200671
0.000198102
0.000195589
0.000193133
0.000190733
0.000188391
0.000186107
0.00018388
0.000181709
0.000179593
0.000177529
0.000175515
0.000173549
0.000171628
0.000169748
0.000167902
0.000166096
0.000164294
0.00016255
0.00016078
0.000159087
0.00015722
0.000155812
0.000153764
0.000151757
0.00014941
0.000147256
0.000137266
7.90651e-07
2.77868e-05
6.52861e-05
9.40062e-05
0.000114383
0.000128818
0.000139501
0.00014811
0.000155829
0.000163412
0.000171281
0.000179634
0.000188545
0.000198034
0.000208097
0.000218694
0.000229754
0.000241195
0.000252943
0.000264928
0.000277087
0.000289361
0.000301699
0.000314055
0.000326388
0.000338665
0.000350858
0.000362945
0.000374908
0.000386735
0.000398415
0.000409942
0.000421313
0.000432525
0.000443577
0.000454469
0.000465203
0.00047578
0.0004862
0.000496464
0.000506572
0.000516524
0.000526318
0.00053595
0.000545415
0.000554704
0.00056381
0.000572722
0.000581431
0.000589927
0.000598215
0.000606302
0.000614188
0.000621867
0.000629328
0.00063656
0.000643549
0.00065028
0.00065674
0.000662911
0.000668779
0.000674327
0.000679541
0.000684404
0.000688903
0.000693023
0.000696752
0.000700077
0.000702986
0.000705543
0.00070766
0.000709092
0.000710258
0.000710974
0.000711237
0.000711046
0.000710404
0.000709317
0.000707789
0.000705828
0.000703445
0.00070065
0.000697456
0.000693878
0.000689931
0.000685631
0.000680996
0.000676044
0.000670795
0.000665268
0.000659483
0.000653457
0.00064721
0.000640759
0.000634126
0.000627327
0.000620381
0.000613307
0.000606122
0.000598845
0.000591493
0.000584082
0.000576628
0.000569144
0.000561645
0.000554142
0.000546648
0.000539174
0.000531728
0.000524321
0.000516964
0.000509666
0.000502436
0.000495276
0.000488193
0.00048119
0.000474269
0.000467435
0.000460697
0.000454059
0.000447517
0.000441071
0.000434721
0.000428471
0.000422322
0.000416275
0.000410339
0.000404524
0.000398824
0.000393235
0.000387751
0.000382364
0.00037706
0.000371864
0.00036679
0.000361824
0.000356957
0.000352188
0.00034751
0.000342937
0.000338447
0.00033402
0.000329672
0.000325408
0.000321234
0.000317149
0.000313152
0.000309237
0.000305399
0.000301639
0.000297959
0.000294361
0.000290843
0.000287404
0.000284039
0.000280747
0.000277528
0.00027438
0.000271304
0.000268298
0.000265362
0.000262492
0.000259688
0.000256945
0.000254261
0.000251632
0.000249054
0.000246519
0.000244027
0.000241555
0.000239123
0.000236685
0.000234292
0.000231764
0.000229488
0.000226813
0.000224354
0.000221406
0.000218609
0.000207967
1.10834e-06
3.38917e-05
7.8928e-05
0.000114202
0.000140443
0.000159868
0.000174828
0.000187135
0.000198105
0.000208625
0.000219244
0.00023026
0.000241814
0.000253949
0.000266653
0.000279842
0.000293481
0.000307479
0.000321754
0.000336232
0.000350845
0.00036553
0.000380233
0.000394907
0.000409511
0.000424011
0.000438378
0.00045259
0.00046663
0.000480484
0.000494143
0.000507599
0.000520849
0.00053389
0.000546724
0.00055935
0.000571769
0.000583982
0.00059599
0.000607796
0.0006194
0.000630801
0.000642005
0.000653009
0.000663808
0.000674398
0.000684774
0.00069493
0.000704856
0.000714554
0.000724028
0.000733279
0.000742303
0.000751091
0.000759634
0.000767918
0.000775931
0.000783656
0.000791078
0.000798182
0.000804948
0.000811362
0.000817405
0.00082306
0.000828311
0.000833142
0.000837537
0.000841481
0.00084496
0.000848014
0.000850664
0.000852549
0.00085404
0.000855064
0.000855574
0.000855569
0.000855051
0.000854024
0.000852492
0.000850463
0.000847947
0.000844956
0.000841503
0.000837602
0.000833272
0.000828529
0.000823393
0.000817884
0.000812024
0.000805833
0.000799335
0.00079255
0.000785501
0.000778209
0.000770694
0.00076298
0.000755085
0.000747033
0.000738843
0.000730535
0.000722129
0.000713643
0.000705096
0.000696504
0.000687881
0.000679244
0.000670606
0.000661979
0.000653374
0.000644804
0.00063628
0.000627812
0.000619409
0.000611079
0.000602827
0.000594659
0.00058658
0.000578594
0.000570709
0.000562933
0.00055528
0.000547733
0.000540292
0.000532962
0.000525745
0.000518643
0.00051166
0.000504803
0.000498073
0.000491467
0.000484984
0.000478618
0.000472365
0.00046623
0.000460223
0.000454341
0.000448581
0.000442939
0.000437412
0.000432036
0.000426781
0.000421629
0.000416575
0.000411628
0.000406791
0.00040206
0.000397431
0.000392893
0.000388437
0.000384072
0.000379803
0.000375628
0.000371547
0.000367555
0.000363648
0.000359828
0.000356093
0.000352441
0.00034887
0.00034538
0.000341967
0.000338631
0.000335367
0.000332171
0.000329042
0.000325973
0.00032296
0.000319994
0.000317073
0.000314178
0.000311313
0.000308449
0.000305606
0.000302668
0.000299838
0.000296714
0.00029397
0.000290544
0.000287413
0.000277301
1.38046e-06
3.84629e-05
8.9516e-05
0.000130537
0.000162194
0.000186508
0.000205764
0.000221832
0.000236101
0.00024955
0.00026282
0.000276296
0.000290179
0.000304559
0.00031936
0.000334721
0.000350436
0.000366447
0.000382682
0.00039907
0.000415543
0.000432041
0.000448508
0.000464899
0.000481173
0.000497296
0.000513239
0.000528981
0.000544504
0.000559793
0.000574839
0.000589638
0.000604183
0.000618466
0.000632503
0.000646291
0.000659827
0.000673113
0.000686151
0.000698948
0.000711507
0.000723835
0.000735932
0.000747791
0.000759412
0.000770793
0.000781936
0.00079284
0.000803505
0.000813933
0.000824125
0.000834077
0.000843785
0.000853241
0.000862435
0.000871356
0.00087999
0.000888323
0.000896341
0.000904026
0.000911362
0.000918332
0.000924917
0.0009311
0.000936863
0.000942189
0.000947061
0.000951463
0.000955377
0.000958808
0.000961849
0.000964167
0.000965973
0.000967298
0.000968078
0.000968307
0.000967986
0.000967117
0.000965702
0.00096375
0.000961268
0.000958268
0.000954762
0.000950767
0.000946297
0.000941373
0.000936013
0.000930238
0.000924072
0.000917536
0.000910654
0.00090345
0.000895946
0.000888167
0.000880135
0.000871874
0.000863406
0.000854754
0.000845941
0.000836987
0.000827915
0.000818744
0.000809493
0.00080018
0.000790824
0.000781439
0.000772042
0.000762646
0.000753264
0.000743909
0.000734593
0.000725327
0.000716121
0.000706983
0.000697923
0.000688945
0.000680057
0.000671265
0.000662575
0.000653995
0.000645536
0.000637183
0.000628944
0.000620824
0.000612825
0.000604951
0.000597204
0.00058959
0.000582111
0.000574766
0.000567556
0.000560479
0.000553532
0.000546718
0.00054004
0.0005335
0.000527097
0.000520835
0.000514709
0.000508729
0.000502887
0.000497175
0.000491586
0.000486137
0.000480833
0.000475657
0.000470602
0.000465667
0.000460843
0.000456128
0.000451521
0.000447023
0.000442628
0.000438328
0.000434122
0.000430011
0.000425995
0.000422071
0.000418237
0.000414491
0.00041083
0.000407251
0.00040375
0.000400323
0.000396967
0.000393675
0.000390441
0.000387257
0.000384117
0.000381008
0.000377922
0.000374839
0.000371762
0.000368617
0.000365494
0.000362166
0.000358925
0.000355521
0.000352073
0.000342811
1.59104e-06
4.16832e-05
9.7317e-05
0.000143417
0.000179769
0.000208684
0.00023211
0.000251894
0.000269438
0.000285765
0.000301576
0.000317345
0.000333242
0.000349477
0.00036622
0.000383287
0.000400629
0.000418193
0.000435916
0.000453732
0.00047158
0.000489399
0.000507139
0.000524755
0.000542206
0.00055946
0.000576489
0.000593271
0.000609787
0.000626022
0.000641964
0.000657626
0.000673009
0.000688121
0.000702953
0.000717486
0.000731716
0.000745645
0.000759275
0.000772617
0.000785678
0.00079846
0.000810976
0.000823231
0.000835232
0.000846982
0.000858487
0.000869749
0.000880771
0.000891552
0.000902091
0.000912385
0.000922431
0.000932221
0.000941748
0.000951001
0.000959971
0.000968642
0.000977002
0.000985035
0.000992724
0.00100005
0.001007
0.00101356
0.0010197
0.0010254
0.00103066
0.00103544
0.00103974
0.00104354
0.00104692
0.00104966
0.00105181
0.00105348
0.00105459
0.00105512
0.00105509
0.00105448
0.00105331
0.00105157
0.00104927
0.00104642
0.00104303
0.00103912
0.0010347
0.0010298
0.00102443
0.00101861
0.00101236
0.00100571
0.00099869
0.000991313
0.000983607
0.000975598
0.00096731
0.000958767
0.000949994
0.000941015
0.000931853
0.000922531
0.000913071
0.000903494
0.000893821
0.000884071
0.000874264
0.000864415
0.000854542
0.000844659
0.000834782
0.000824922
0.000815094
0.000805309
0.000795578
0.00078591
0.000776315
0.0007668
0.000757373
0.00074804
0.000738808
0.000729685
0.000720677
0.000711783
0.000703008
0.000694355
0.000685829
0.000677431
0.000669167
0.000661039
0.00065305
0.000645202
0.000637496
0.000629933
0.000622511
0.000615231
0.000608097
0.000601109
0.000594268
0.000587581
0.000581035
0.00057464
0.000568395
0.000562295
0.000556338
0.000550528
0.00054487
0.000539359
0.000533987
0.000528777
0.000523714
0.000518782
0.00051398
0.000509307
0.000504755
0.000500317
0.00049599
0.000491767
0.000487649
0.000483629
0.000479705
0.000475873
0.000472133
0.000468479
0.000464906
0.000461414
0.000457995
0.000454643
0.00045135
0.00044811
0.000444914
0.000441749
0.000438606
0.000435466
0.000432323
0.000429129
0.000425913
0.000422546
0.000419137
0.000415539
0.000412104
0.000403496
1.73744e-06
4.37701e-05
0.000102694
0.00015294
0.000193414
0.000226494
0.000253825
0.00027716
0.000297869
0.000316991
0.000335177
0.000352964
0.000370823
0.00038889
0.000407131
0.000425568
0.000444181
0.000462929
0.000481759
0.000500614
0.000519439
0.000538179
0.000556787
0.000575221
0.000593443
0.000611422
0.000629132
0.000646552
0.000663665
0.000680457
0.000696961
0.000713168
0.000729028
0.000744526
0.000759674
0.000774484
0.000788962
0.000803117
0.000816958
0.00083049
0.000843719
0.000856654
0.000869304
0.000881679
0.000893786
0.000905633
0.000917227
0.000928573
0.000939677
0.000950539
0.000961162
0.000971546
0.000981687
0.000991581
0.00100122
0.00101061
0.00101972
0.00102855
0.00103709
0.00104533
0.00105324
0.00106081
0.00106802
0.00107486
0.00108131
0.00108734
0.00109293
0.00109808
0.00110275
0.00110693
0.00111067
0.00111384
0.00111642
0.00111849
0.00112
0.00112093
0.00112128
0.00112105
0.00112023
0.00111882
0.00111684
0.00111428
0.00111116
0.0011075
0.0011033
0.00109858
0.00109337
0.00108768
0.00108153
0.00107496
0.00106798
0.00106062
0.00105291
0.00104487
0.00103652
0.00102789
0.00101902
0.00100991
0.00100061
0.00099112
0.000981477
0.000971701
0.000961813
0.000951834
0.000941782
0.000931677
0.000921535
0.000911374
0.000901207
0.00089105
0.000880916
0.000870818
0.000860766
0.000850772
0.000840845
0.000830994
0.000821227
0.000811553
0.000801977
0.000792507
0.000783148
0.000773906
0.000764784
0.000755786
0.000746916
0.000738179
0.000729577
0.000721114
0.000712793
0.000704618
0.000696589
0.000688708
0.000680975
0.000673393
0.000665963
0.000658686
0.000651564
0.0006446
0.000637791
0.000631139
0.000624645
0.000618308
0.000612127
0.000606102
0.000600237
0.00059453
0.000588977
0.000583589
0.000578356
0.000573272
0.000568349
0.000563583
0.000558958
0.000554472
0.000550118
0.00054589
0.000541781
0.000537783
0.000533892
0.000530102
0.000526406
0.0005228
0.000519277
0.000515839
0.000512478
0.000509184
0.00050595
0.00050277
0.000499636
0.000496535
0.000493452
0.000490375
0.000487291
0.000484165
0.000480999
0.000477714
0.000474338
0.000470744
0.000467507
0.00045939
1.82423e-06
4.49217e-05
0.000105978
0.00015943
0.000203491
0.000240137
0.00027106
0.00029769
0.000321264
0.000342871
0.000363391
0.000383379
0.000403047
0.000422584
0.000442109
0.000461673
0.000481285
0.000500923
0.00052055
0.000540123
0.000559594
0.000578918
0.000598052
0.000616959
0.000635605
0.000653963
0.00067201
0.000689729
0.000707103
0.000724172
0.000740884
0.000757201
0.000773138
0.000788699
0.000803888
0.000818713
0.00083318
0.000847301
0.000861085
0.000874543
0.000887683
0.000900518
0.000913059
0.000925317
0.000937303
0.000949027
0.000960498
0.000971725
0.000982714
0.000993471
0.001004
0.0010143
0.00102438
0.00103423
0.00104385
0.00105323
0.00106237
0.00107125
0.00107988
0.00108822
0.00109628
0.00110403
0.00111146
0.00111855
0.00112527
0.00113161
0.00113755
0.00114307
0.00114813
0.00115274
0.00115689
0.00116052
0.00116359
0.00116614
0.00116815
0.00116957
0.00117041
0.00117065
0.0011703
0.00116935
0.0011678
0.00116567
0.00116295
0.00115967
0.00115582
0.00115144
0.00114653
0.00114112
0.00113523
0.00112888
0.0011221
0.00111491
0.00110734
0.00109942
0.00109117
0.00108261
0.00107379
0.00106471
0.00105541
0.00104592
0.00103625
0.00102642
0.00101648
0.00100642
0.000996278
0.00098607
0.000975813
0.000965526
0.000955223
0.000944921
0.000934632
0.000924372
0.000914151
0.000903981
0.000893873
0.000883835
0.000873878
0.000864009
0.000854235
0.000844564
0.000835003
0.000825556
0.000816229
0.000807027
0.000797954
0.000789013
0.00078021
0.000771548
0.00076303
0.000754658
0.000746437
0.000738368
0.000730453
0.000722692
0.000715089
0.000707645
0.000700362
0.000693241
0.000686283
0.000679489
0.000672861
0.000666398
0.000660099
0.000653967
0.000648001
0.000642202
0.000636569
0.000631105
0.000625807
0.000620672
0.000615703
0.000610899
0.000606252
0.000601774
0.000597454
0.000593275
0.000589234
0.000585323
0.000581533
0.000577857
0.000574289
0.000570819
0.000567439
0.000564144
0.000560925
0.000557773
0.000554679
0.000551643
0.000548655
0.000545698
0.000542758
0.000539828
0.00053689
0.000533917
0.000530897
0.00052778
0.000524558
0.000521121
0.00051794
0.000510764
1.85866e-06
4.53258e-05
0.000107528
0.000163324
0.000210353
0.000249983
0.000283817
0.000313265
0.000339665
0.000363962
0.000386779
0.000408607
0.000429821
0.000450665
0.000471289
0.000491775
0.000512156
0.000532435
0.000552595
0.000572607
0.000592436
0.000612046
0.000631403
0.000650476
0.000669237
0.000687664
0.000705735
0.000723461
0.000740864
0.000757879
0.000774463
0.000790636
0.000806403
0.000821772
0.000836749
0.000851345
0.000865569
0.000879434
0.000892952
0.000906136
0.000918997
0.000931551
0.00094381
0.000955788
0.000967497
0.000978951
0.00099016
0.00100113
0.00101189
0.00102242
0.00103274
0.00104286
0.00105278
0.00106249
0.001072
0.00108131
0.00109041
0.00109929
0.00110794
0.00111636
0.00112453
0.00113244
0.00114006
0.00114739
0.00115439
0.00116105
0.00116735
0.00117327
0.00117877
0.00118385
0.00118848
0.00119262
0.00119625
0.00119937
0.00120197
0.00120397
0.00120539
0.00120622
0.00120644
0.00120606
0.00120507
0.00120348
0.00120129
0.00119851
0.00119515
0.00119122
0.00118675
0.00118174
0.00117623
0.00117023
0.00116378
0.00115689
0.00114959
0.00114191
0.00113388
0.00112552
0.00111686
0.00110794
0.00109877
0.00108938
0.0010798
0.00107006
0.00106017
0.00105015
0.00104004
0.00102984
0.00101959
0.00100929
0.000998964
0.000988631
0.000978302
0.000967993
0.000957717
0.000947484
0.000937306
0.000927194
0.000917157
0.000907204
0.000897343
0.000887581
0.000877926
0.000868383
0.000858959
0.000849659
0.000840487
0.000831449
0.000822548
0.000813788
0.000805174
0.000796708
0.000788395
0.000780236
0.000772234
0.00076439
0.000756709
0.00074919
0.000741837
0.000734651
0.000727633
0.000720785
0.000714108
0.000707604
0.000701271
0.000695112
0.000689127
0.000683316
0.00067768
0.000672218
0.000666932
0.000661818
0.000656877
0.000652109
0.00064751
0.000643082
0.00063882
0.000634722
0.000630789
0.000627002
0.000623356
0.000619839
0.000616443
0.000613156
0.000609969
0.000606873
0.00060386
0.000600918
0.000598035
0.000595206
0.000592418
0.000589659
0.000586915
0.000584187
0.000581453
0.000578687
0.000575875
0.000572982
0.000569986
0.000566792
0.00056375
0.00055746
1.8454e-06
4.50245e-05
0.000107449
0.00016463
0.000213774
0.000255946
0.000292692
0.000325015
0.000353986
0.000380495
0.000405234
0.000428714
0.00045131
0.000473288
0.000494824
0.000516028
0.00053696
0.000557644
0.000578085
0.000598271
0.000618182
0.000637795
0.000657088
0.000676038
0.00069462
0.000712834
0.000730698
0.000748253
0.000765379
0.000782038
0.000798257
0.000814046
0.000829416
0.000844378
0.000858944
0.000873124
0.000886932
0.000900381
0.000913486
0.000926261
0.00093872
0.000950879
0.000962752
0.000974355
0.000985701
0.000996804
0.00100768
0.00101834
0.00102879
0.00103904
0.00104911
0.001059
0.00106871
0.00107825
0.00108762
0.00109682
0.00110585
0.0011147
0.00112337
0.00113185
0.00114013
0.00114818
0.00115601
0.00116358
0.00117088
0.00117789
0.00118458
0.00119093
0.00119692
0.00120251
0.00120769
0.00121242
0.00121666
0.00122044
0.00122371
0.0012264
0.0012285
0.00123
0.00123091
0.0012312
0.00123088
0.00122994
0.00122838
0.00122622
0.00122345
0.0012201
0.00121617
0.00121168
0.00120666
0.00120113
0.00119511
0.00118862
0.0011817
0.00117437
0.00116666
0.0011586
0.00115022
0.00114154
0.0011326
0.00112342
0.00111403
0.00110445
0.00109471
0.00108483
0.00107484
0.00106475
0.00105458
0.00104436
0.00103411
0.00102383
0.00101355
0.00100328
0.000993037
0.000982828
0.000972668
0.000962567
0.000952536
0.000942584
0.000932719
0.00092295
0.000913285
0.000903729
0.00089429
0.000884973
0.000875784
0.000866727
0.000857807
0.000849029
0.000840397
0.000831914
0.000823585
0.000815411
0.000807397
0.000799545
0.000791857
0.000784335
0.000776982
0.0007698
0.000762791
0.000755957
0.000749298
0.000742817
0.000736515
0.000730391
0.000724448
0.000718685
0.000713104
0.000707704
0.000702485