/*--------------------------------*- C++ -*----------------------------------*\
  =========                 |
  \\      /  F ield         | OpenFOAM: The Open Source CFD Toolbox
   \\    /   O peration     | Website:  https://openfoam.org
    \\  /    A nd           | Version:  10
     \\/     M anipulation  |
\*---------------------------------------------------------------------------*/
FoamFile
{
    format      ascii;
    class       volScalarField;
    location    "100";
    object      p;
}
// * * * * * * * * * * * * * * * * * * * * * * * * * * * * * * * * * * * * * //

dimensions      [0 2 -2 0 0 0 0];

internalField   nonuniform List<scalar> 
12225
(
-0.353868
-0.294483
-0.233417
-0.185124
-0.147899
-0.119994
-0.0987531
-0.0823796
-0.0697034
-0.0598655
-0.0522487
-0.0464274
-0.0421192
-0.0391884
-0.0376695
-0.0380491
-0.0416145
-0.0533321
-0.43363
-0.305208
-0.240237
-0.191198
-0.153309
-0.124863
-0.103115
-0.0863009
-0.0732506
-0.0630958
-0.0552131
-0.0491722
-0.044688
-0.0416253
-0.0400136
-0.0402865
-0.0432165
-0.05154
-0.489279
-0.320282
-0.252318
-0.201547
-0.162416
-0.133043
-0.110445
-0.0928935
-0.0792135
-0.0685216
-0.060184
-0.0537604
-0.048956
-0.0456217
-0.0437457
-0.0435894
-0.0452788
-0.0489616
-0.505531
-0.333329
-0.264178
-0.211636
-0.171404
-0.141226
-0.117884
-0.0996722
-0.0854122
-0.0742123
-0.0654317
-0.0586196
-0.0534652
-0.0497861
-0.0474903
-0.0466095
-0.0467747
-0.0472548
-0.498018
-0.34248
-0.273264
-0.219728
-0.178874
-0.148197
-0.124361
-0.105682
-0.0909891
-0.079392
-0.0702483
-0.0630979
-0.0576105
-0.0535612
-0.0507699
-0.0490801
-0.0478726
-0.0465076
-0.476935
-0.347029
-0.279204
-0.225876
-0.184906
-0.154028
-0.129927
-0.110948
-0.0959472
-0.0840463
-0.0746058
-0.0671584
-0.0613541
-0.0569266
-0.0536235
-0.0511708
-0.0488673
-0.0464272
-0.447063
-0.346307
-0.281789
-0.230028
-0.189575
-0.15878
-0.134636
-0.115514
-0.100316
-0.0881921
-0.0785109
-0.0708013
-0.064697
-0.0598982
-0.0561042
-0.0529843
-0.0498537
-0.0468072
-0.411791
-0.340034
-0.280835
-0.231854
-0.192775
-0.16239
-0.138441
-0.119344
-0.104065
-0.0918009
-0.0819363
-0.0740024
-0.0676231
-0.0624768
-0.058239
-0.054566
-0.0508466
-0.04751
-0.373843
-0.328393
-0.276375
-0.231094
-0.194279
-0.164781
-0.141279
-0.122391
-0.107162
-0.0948459
-0.0848602
-0.0767459
-0.0701263
-0.0646716
-0.0600549
-0.055948
-0.0518396
-0.0484152
-0.335209
-0.311974
-0.268604
-0.227746
-0.193844
-0.16586
-0.143093
-0.124615
-0.109576
-0.0973083
-0.087271
-0.0790277
-0.0722124
-0.0665007
-0.0615796
-0.0571532
-0.0528114
-0.0494236
-0.297116
-0.291769
-0.257844
-0.222006
-0.191453
-0.165546
-0.143848
-0.125976
-0.111277
-0.0991664
-0.0891567
-0.0808455
-0.0738889
-0.0679803
-0.0628325
-0.0581892
-0.0537249
-0.0504544
-0.263269
-0.27084
-0.245746
-0.21487
-0.187667
-0.164011
-0.143608
-0.126459
-0.112201
-0.100328
-0.0904142
-0.0820985
-0.0750654
-0.0690335
-0.0637462
-0.0589836
-0.0544687
-0.0513631
-0.232272
-0.248465
-0.232079
-0.206238
-0.182478
-0.161278
-0.142435
-0.126209
-0.11252
-0.10098
-0.0912313
-0.0829693
-0.0759128
-0.0698129
-0.0644446
-0.0596208
-0.0551549
-0.0521024
-0.200017
-0.222528
-0.215197
-0.195024
-0.175161
-0.156841
-0.139985
-0.125053
-0.112167
-0.101116
-0.0916458
-0.0835148
-0.0764962
-0.0703811
-0.0649839
-0.0601523
-0.0557875
-0.0527463
-0.167577
-0.194504
-0.195727
-0.181518
-0.1657
-0.150545
-0.136052
-0.122739
-0.110892
-0.100506
-0.0914444
-0.0835468
-0.0766481
-0.070591
-0.0652323
-0.0604566
-0.0562197
-0.0531809
-0.136939
-0.166738
-0.175318
-0.166859
-0.154872
-0.142854
-0.130837
-0.119251
-0.108571
-0.0989716
-0.0904292
-0.0828598
-0.0761645
-0.0702397
-0.0649842
-0.0603162
-0.0562176
-0.0531539
-0.111304
-0.142757
-0.156844
-0.153281
-0.144573
-0.13518
-0.125273
-0.115187
-0.105535
-0.0966479
-0.0885931
-0.0813489
-0.0748696
-0.0690948
-0.0639567
-0.0593952
-0.0553913
-0.0521959
-0.0964153
-0.127913
-0.144773
-0.14417
-0.137445
-0.129575
-0.120928
-0.111754
-0.102706
-0.0942211
-0.0864405
-0.0793824
-0.0730326
-0.0673562
-0.062304
-0.0578256
-0.0538823
-0.0505078
-0.102319
-0.131991
-0.147569
-0.146013
-0.138374
-0.129718
-0.12046
-0.110787
-0.101311
-0.0924577
-0.0843613
-0.0770293
-0.0704368
-0.0645412
-0.0592828
-0.0545967
-0.0504004
-0.0465107
-0.126218
-0.155186
-0.166063
-0.15948
-0.148157
-0.136683
-0.125187
-0.113859
-0.103203
-0.093502
-0.0847881
-0.0770127
-0.0701047
-0.0639915
-0.0585885
-0.0538194
-0.0495781
-0.0455938
-0.165408
-0.189956
-0.192207
-0.178152
-0.161578
-0.146005
-0.131215
-0.117429
-0.105012
-0.0940339
-0.0843913
-0.0759414
-0.0685515
-0.0620885
-0.0564359
-0.0514813
-0.0471034
-0.0429689
-0.214864
-0.230759
-0.22085
-0.197677
-0.174841
-0.154523
-0.136147
-0.11983
-0.105704
-0.0935661
-0.0831325
-0.0741566
-0.0664252
-0.0597497
-0.0539726
-0.048959
-0.0445742
-0.0404949
-0.271502
-0.272382
-0.246861
-0.214007
-0.184793
-0.159795
-0.138273
-0.12
-0.104632
-0.0916957
-0.08076
-0.0714765
-0.0635625
-0.0567906
-0.0509706
-0.0459547
-0.0415971
-0.0375974
-0.332451
-0.309064
-0.265941
-0.22455
-0.189886
-0.161106
-0.137427
-0.117954
-0.101857
-0.0884862
-0.0773128
-0.0679161
-0.0599694
-0.053214
-0.0474447
-0.0424953
-0.0382252
-0.0343566
-0.393513
-0.335483
-0.276256
-0.228624
-0.189851
-0.158758
-0.133968
-0.113907
-0.0975092
-0.0840165
-0.0728336
-0.0634978
-0.0556543
-0.0490247
-0.043391
-0.0385796
-0.0344519
-0.0307595
-0.449013
-0.348628
-0.277661
-0.226438
-0.185396
-0.153395
-0.12827
-0.108122
-0.0917879
-0.0784469
-0.0674606
-0.0583427
-0.0507223
-0.0443121
-0.0388886
-0.034275
-0.0303359
-0.0268562
-0.490216
-0.34814
-0.270863
-0.218799
-0.17745
-0.145529
-0.120656
-0.100841
-0.0848783
-0.071917
-0.0613018
-0.052535
-0.0452441
-0.0391386
-0.0339951
-0.029637
-0.0259318
-0.0226998
-0.499599
-0.335418
-0.257375
-0.206556
-0.166326
-0.135234
-0.111123
-0.0920397
-0.0767528
-0.0644062
-0.0543459
-0.0460791
-0.0392362
-0.0335326
-0.028749
-0.0247131
-0.0212963
-0.0183514
-0.451338
-0.314277
-0.241031
-0.192012
-0.153553
-0.123719
-0.100691
-0.0825986
-0.0681866
-0.0566064
-0.0472195
-0.0395446
-0.0332226
-0.027979
-0.0236024
-0.0199278
-0.0168288
-0.0141793
-0.357753
-0.296425
-0.230279
-0.182271
-0.144918
-0.115904
-0.0935983
-0.0761676
-0.0623378
-0.0512653
-0.0423229
-0.0350381
-0.0290588
-0.0241176
-0.0200094
-0.0165716
-0.0136821
-0.0111995
-0.0670611
-0.0671078
-0.0673763
-0.0678258
-0.0683462
-0.0688968
-0.0694817
-0.0701104
-0.0707992
-0.0715669
-0.0724326
-0.0734164
-0.0745392
-0.0758193
-0.0772694
-0.0788976
-0.0807051
-0.082689
-0.0848369
-0.0871332
-0.089552
-0.0920671
-0.0946416
-0.0972431
-0.0998302
-0.10237
-0.104822
-0.107155
-0.10933
-0.111323
-0.113096
-0.11463
-0.115894
-0.116874
-0.11754
-0.117885
-0.117882
-0.117525
-0.116786
-0.115661
-0.114121
-0.112167
-0.109776
-0.106959
-0.103706
-0.100033
-0.0959305
-0.0914035
-0.086421
-0.0809689
-0.0750188
-0.0685867
-0.0616769
-0.0543117
-0.046494
-0.0382453
-0.0295713
-0.0204953
-0.011029
-0.00119938
0.00897599
0.0194678
0.0302518
0.0412961
0.052571
0.0640429
0.075678
0.0874414
0.0992959
0.111206
0.123133
0.135043
0.146898
0.158666
0.170309
0.1818
0.193101
0.204189
0.215029
0.225605
0.235886
0.245859
0.255499
0.264799
0.27374
0.282317
0.290516
0.298337
0.305773
0.312828
0.319505
0.325806
0.331739
0.337317
0.342554
0.347455
0.352025
0.356269
0.360199
0.363824
0.367157
0.37021
0.372996
0.375526
0.377813
0.379871
0.381712
0.383349
0.384795
0.386062
0.387161
0.388103
0.388899
0.389558
0.390091
0.390506
0.390812
0.391019
0.391134
0.391165
0.391119
0.391001
0.390815
0.390569
0.390269
0.38992
0.389526
0.389094
0.388625
0.388126
0.387599
0.387046
0.386471
0.385877
0.385264
0.384636
0.383995
0.383343
0.382681
0.382012
0.381336
0.380655
0.379968
0.379277
0.378583
0.377886
0.377187
0.376486
0.375785
0.375083
0.374381
0.373679
0.372978
0.372278
0.371579
0.370881
0.370183
0.369485
0.368788
0.368093
0.367402
0.366714
0.366031
0.365353
0.364683
0.364022
0.363374
0.362743
0.362134
0.361556
0.361019
0.360537
0.360134
0.359841
0.359704
0.359791
0.360232
0.361121
0.363179
0.365298
-0.0663303
-0.0665424
-0.0669113
-0.0673247
-0.0676904
-0.0679944
-0.0682904
-0.0686431
-0.0690876
-0.0696401
-0.0703218
-0.0711558
-0.0721604
-0.0733501
-0.0747364
-0.0763292
-0.0781308
-0.0801368
-0.0823318
-0.0846948
-0.0871948
-0.0898006
-0.0924733
-0.0951778
-0.0978715
-0.10052
-0.103082
-0.105526
-0.107815
-0.109923
-0.111817
-0.113476
-0.114871
-0.115987
-0.116799
-0.117295
-0.117455
-0.11727
-0.116719
-0.115793
-0.114474
-0.112754
-0.110614
-0.108052
-0.105051
-0.10161
-0.0977141
-0.093362
-0.0885434
-0.0832676
-0.0775364
-0.0713559
-0.0647192
-0.0576335
-0.0501012
-0.0421356
-0.0337447
-0.0249461
-0.0157539
-0.0061894
0.00372777
0.0139724
0.0245195
0.0353403
0.046405
0.057682
0.0691378
0.0807387
0.0924484
0.104232
0.116053
0.127876
0.139665
0.151385
0.163002
0.174484
0.185796
0.196912
0.207801
0.218441
0.228803
0.238872
0.248623
0.258047
0.267124
0.275847
0.284203
0.292187
0.299793
0.307023
0.313877
0.320357
0.326463
0.332202
0.337581
0.342616
0.347321
0.351703
0.355772
0.359539
0.363014
0.36621
0.369138
0.371809
0.374236
0.376432
0.37841
0.38018
0.381757
0.383151
0.384374
0.385437
0.38635
0.387123
0.387766
0.388288
0.388699
0.389005
0.389216
0.38934
0.389382
0.389348
0.389245
0.389078
0.388853
0.388576
0.388252
0.387886
0.387482
0.387043
0.386572
0.386075
0.385551
0.385006
0.38444
0.383857
0.383259
0.382647
0.382023
0.38139
0.380749
0.3801
0.379444
0.378782
0.378115
0.377444
0.37677
0.376092
0.375413
0.374731
0.374049
0.373365
0.372681
0.371997
0.371312
0.370627
0.369942
0.369257
0.368573
0.36789
0.367209
0.366532
0.365858
0.36519
0.364528
0.363876
0.363236
0.362612
0.362011
0.361441
0.360911
0.360438
0.360043
0.359755
0.359624
0.359708
0.360133
0.360958
0.362812
0.364526
-0.0640968
-0.0646514
-0.0655083
-0.066148
-0.0664737
-0.0666323
-0.0667589
-0.0669496
-0.0672699
-0.0677591
-0.0684398
-0.0693243
-0.0704185
-0.0717263
-0.073249
-0.0749827
-0.0769161
-0.0790341
-0.0813149
-0.083735
-0.0862642
-0.0888731
-0.0915265
-0.0941936
-0.0968376
-0.0994286
-0.101932
-0.104319
-0.106559
-0.108628
-0.110496
-0.112143
-0.113544
-0.114682
-0.115533
-0.116085
-0.116318
-0.11622
-0.115774
-0.114971
-0.113794
-0.112235
-0.110281
-0.107924
-0.105148
-0.101946
-0.0983008
-0.0942068
-0.0896549
-0.0846496
-0.0791926
-0.0732894
-0.0669383
-0.0601442
-0.0529102
-0.0452455
-0.0371586
-0.0286636
-0.0197744
-0.0105095
-0.000888152
0.00906699
0.0193316
0.029879
0.0406806
0.0517059
0.062923
0.0742991
0.0857998
0.0973907
0.109036
0.120702
0.132351
0.14395
0.155466
0.166864
0.178114
0.189185
0.20005
0.210682
0.221056
0.231152
0.240949
0.250431
0.259582
0.268392
0.276848
0.284944
0.292674
0.30004
0.307044
0.313686
0.319968
0.325895
0.331475
0.336715
0.341624
0.346211
0.350483
0.354452
0.358126
0.361517
0.364637
0.367496
0.370108
0.372483
0.374635
0.376576
0.378317
0.37987
0.381247
0.382457
0.383512
0.384422
0.385197
0.385845
0.386376
0.386799
0.38712
0.387349
0.387492
0.387554
0.387542
0.387463
0.387322
0.387125
0.386877
0.386583
0.386247
0.385872
0.385463
0.385023
0.384555
0.384062
0.383546
0.38301
0.382456
0.381887
0.381303
0.380708
0.380102
0.379487
0.378863
0.378231
0.377592
0.376948
0.376299
0.375645
0.374988
0.374328
0.373666
0.373001
0.372335
0.371667
0.370997
0.370327
0.369656
0.368984
0.368313
0.367642
0.366973
0.366306
0.365643
0.364983
0.364331
0.363686
0.363054
0.362439
0.361845
0.361281
0.360758
0.360291
0.359899
0.35961
0.359469
0.359526
0.359893
0.360571
0.362053
0.363062
-0.060853
-0.0617552
-0.0632951
-0.0644646
-0.0651176
-0.0655069
-0.0658119
-0.0661453
-0.0665895
-0.0671994
-0.0680064
-0.069026
-0.0702639
-0.0717192
-0.0733852
-0.0752503
-0.0772974
-0.0795074
-0.0818568
-0.0843219
-0.0868736
-0.0894854
-0.0921254
-0.0947661
-0.0973751
-0.099926
-0.102387
-0.104735
-0.10694
-0.108981
-0.110831
-0.112472
-0.113878
-0.115034
-0.115919
-0.116517
-0.116809
-0.116783
-0.116419
-0.115709
-0.114635
-0.11319
-0.111357
-0.109131
-0.106496
-0.103444
-0.0999609
-0.0960407
-0.0916745
-0.0868629
-0.0816039
-0.0759002
-0.0697507
-0.0631598
-0.0561302
-0.0486699
-0.0407871
-0.0324941
-0.0238044
-0.0147351
-0.00530483
0.0044649
0.0145505
0.024926
0.0355636
0.0464338
0.057505
0.0687451
0.0801204
0.0915969
0.10314
0.114714
0.126284
0.137817
0.149278
0.160634
0.171855
0.182909
0.193768
0.204406
0.214798
0.224923
0.234759
0.244289
0.253498
0.262373
0.270904
0.279083
0.286905
0.294374
0.301489
0.308251
0.314661
0.320724
0.326446
0.331831
0.336887
0.341622
0.346043
0.350159
0.353981
0.357519
0.360784
0.363787
0.366539
0.369054
0.371342
0.373416
0.375287
0.376967
0.378467
0.379797
0.380968
0.38199
0.382873
0.383626
0.384257
0.384776
0.385191
0.385509
0.385738
0.385882
0.385949
0.385945
0.385876
0.385749
0.385567
0.385336
0.38506
0.384743
0.384389
0.384001
0.383582
0.383135
0.382664
0.382171
0.381658
0.381126
0.380579
0.380019
0.379446
0.378861
0.378266
0.377662
0.37705
0.376431
0.375806
0.375175
0.374539
0.3739
0.373256
0.37261
0.37196
0.371308
0.370654
0.369998
0.369341
0.368683
0.368024
0.367365
0.366706
0.36605
0.365395
0.364745
0.3641
0.363463
0.362838
0.362227
0.361638
0.361077
0.360554
0.360085
0.359686
0.359383
0.359211
0.359207
0.359463
0.359933
0.360977
0.361307
-0.0576951
-0.0589306
-0.0611672
-0.0629508
-0.0640672
-0.0648398
-0.0654779
-0.066104
-0.0668085
-0.0676544
-0.0686786
-0.0698991
-0.0713213
-0.0729426
-0.074754
-0.0767417
-0.078887
-0.0811703
-0.0835679
-0.0860572
-0.0886115
-0.0912066
-0.093814
-0.0964098
-0.098965
-0.101457
-0.103857
-0.106145
-0.108294
-0.110285
-0.112093
-0.113702
-0.115087
-0.116236
-0.117125
-0.117741
-0.118064
-0.118083
-0.117777
-0.117136
-0.116142
-0.114786
-0.113052
-0.110931
-0.108409
-0.105477
-0.102123
-0.0983397
-0.0941189
-0.0894579
-0.084352
-0.0788019
-0.0728058
-0.0663672
-0.0594885
-0.052177
-0.0444401
-0.0362894
-0.0277377
-0.0188013
-0.00949832
0.000150281
0.0101214
0.0203897
0.0309275
0.0417057
0.0526932
0.0638579
0.0751661
0.086584
0.0980768
0.10961
0.121148
0.132658
0.144104
0.155454
0.166676
0.17774
0.188617
0.19928
0.209704
0.219867
0.229749
0.23933
0.248596
0.257535
0.266137
0.274394
0.282301
0.289858
0.297066
0.303922
0.310429
0.316592
0.322415
0.327904
0.333065
0.337905
0.342432
0.346656
0.350585
0.354231
0.357602
0.360711
0.363568
0.366187
0.368578
0.370754
0.372724
0.374502
0.376097
0.377521
0.378782
0.379893
0.380861
0.381697
0.382409
0.383006
0.383496
0.383887
0.384185
0.384397
0.384529
0.384588
0.384579
0.38451
0.384384
0.384207
0.383982
0.383714
0.383406
0.383063
0.382686
0.382281
0.381849
0.381392
0.380914
0.380417
0.379902
0.379372
0.378827
0.37827
0.377701
0.377122
0.376533
0.375936
0.375332
0.374722
0.374105
0.373484
0.372858
0.372227
0.371594
0.370956
0.370316
0.369674
0.369029
0.368382
0.367735
0.367086
0.366438
0.36579
0.365144
0.364501
0.363862
0.363231
0.36261
0.362002
0.361413
0.360851
0.360323
0.359844
0.359428
0.359098
0.358878
0.358795
0.358912
0.359153
0.359778
0.359554
-0.055529
-0.0570349
-0.0597833
-0.0620787
-0.0636388
-0.0648079
-0.0658058
-0.0667567
-0.0677526
-0.0688596
-0.0701178
-0.0715471
-0.0731536
-0.0749344
-0.0768793
-0.0789745
-0.0812013
-0.083541
-0.0859715
-0.0884721
-0.0910183
-0.093589
-0.0961586
-0.098706
-0.101206
-0.103638
-0.105977
-0.108205
-0.110297
-0.112237
-0.114001
-0.115574
-0.116934
-0.118066
-0.118949
-0.119571
-0.11991
-0.119956
-0.119688
-0.119096
-0.118161
-0.116873
-0.115214
-0.113176
-0.110743
-0.107906
-0.104651
-0.100973
-0.0968607
-0.0923111
-0.0873177
-0.0818797
-0.0759945
-0.0696648
-0.0628925
-0.055684
-0.0480465
-0.0399908
-0.0315294
-0.0226782
-0.0134548
-0.00388003
0.00602338
0.0162301
0.0267128
0.0374424
0.0483877
0.0595166
0.0707954
0.0821899
0.0936655
0.105188
0.116721
0.128231
0.139683
0.151045
0.162283
0.173369
0.184271
0.194964
0.205423
0.215624
0.225547
0.235176
0.244496
0.253494
0.262159
0.270485
0.278464
0.286096
0.29338
0.300315
0.306901
0.313143
0.319046
0.324615
0.329857
0.334779
0.339389
0.343695
0.347708
0.351437
0.354892
0.358083
0.361024
0.363725
0.366198
0.368454
0.370504
0.37236
0.374032
0.375531
0.376866
0.378049
0.379088
0.379992
0.380771
0.381433
0.381986
0.382438
0.382796
0.383064
0.383251
0.383364
0.383407
0.383387
0.383309
0.383178
0.382998
0.382772
0.382505
0.382201
0.381863
0.381493
0.381096
0.380672
0.380226
0.379759
0.379273
0.37877
0.378252
0.377719
0.377174
0.376617
0.37605
0.375473
0.374888
0.374296
0.373697
0.373092
0.372481
0.371866
0.371246
0.370622
0.369995
0.369364
0.368731
0.368095
0.367457
0.366818
0.366178
0.365538
0.364899
0.364262
0.363629
0.363001
0.362382
0.361775
0.361184
0.360616
0.360079
0.359584
0.359142
0.358773
0.358494
0.358319
0.358285
0.358298
0.358548
0.357874
-0.05484
-0.0564962
-0.059502
-0.0621272
-0.0640292
-0.0655313
-0.0668465
-0.06809
-0.0693498
-0.0706911
-0.0721544
-0.0737612
-0.0755187
-0.0774254
-0.0794716
-0.0816444
-0.0839266
-0.0863011
-0.0887474
-0.0912469
-0.0937774
-0.0963198
-0.0988511
-0.101353
-0.103802
-0.106181
-0.108466
-0.110642
-0.112685
-0.114581
-0.116308
-0.11785
-0.119186
-0.120304
-0.121181
-0.121806
-0.122159
-0.122227
-0.12199
-0.121437
-0.120549
-0.119315
-0.117717
-0.115745
-0.113382
-0.110619
-0.107441
-0.103842
-0.0998112
-0.095343
-0.0904301
-0.085071
-0.0792622
-0.0730057
-0.0663028
-0.0591596
-0.0515827
-0.0435828
-0.035172
-0.0263661
-0.0171825
-0.00764214
0.00223218
0.0124153
0.0228796
0.0335957
0.0445326
0.0556576
0.0669368
0.0783358
0.0898193
0.101353
0.112901
0.124429
0.135902
0.147287
0.158551
0.169663
0.180594
0.191318
0.20181
0.212047
0.222011
0.231684
0.241051
0.250098
0.258816
0.267196
0.275232
0.282922
0.290267
0.297262
0.30391
0.310214
0.316179
0.321811
0.327116
0.332102
0.336776
0.341147
0.345226
0.349019
0.35254
0.355797
0.358805
0.361571
0.36411
0.366431
0.368547
0.370466
0.372202
0.373762
0.37516
0.376402
0.3775
0.378462
0.379298
0.380015
0.380622
0.381126
0.381534
0.381852
0.382087
0.382246
0.382334
0.382358
0.382322
0.382232
0.382091
0.381903
0.381673
0.381404
0.381099
0.380762
0.380395
0.380002
0.379584
0.379145
0.378685
0.378207
0.377713
0.377204
0.37668
0.376144
0.375597
0.375039
0.374472
0.373897
0.373314
0.372724
0.372128
0.371527
0.37092
0.370309
0.369693
0.369073
0.36845
0.367824
0.367195
0.366564
0.365932
0.365298
0.364665
0.364033
0.363404
0.362778
0.362159
0.36155
0.360955
0.360378
0.359828
0.359311
0.358838
0.358421
0.358073
0.357796
0.357608
0.357404
0.357322
0.356284
-0.0556801
-0.05735
-0.0603719
-0.0631255
-0.0652307
-0.0669599
-0.0685073
-0.0699747
-0.07144
-0.0729632
-0.0745831
-0.0763217
-0.0781872
-0.0801791
-0.0822895
-0.0845077
-0.0868181
-0.0892055
-0.0916511
-0.094138
-0.0966456
-0.0991571
-0.101651
-0.104112
-0.106517
-0.108851
-0.111093
-0.113227
-0.115233
-0.117096
-0.118794
-0.120315
-0.121637
-0.122748
-0.123626
-0.124261
-0.12463
-0.124722
-0.124516
-0.124001
-0.123155
-0.121969
-0.120423
-0.118506
-0.1162
-0.113497
-0.11038
-0.106842
-0.102872
-0.0984627
-0.0936068
-0.0883015
-0.0825429
-0.0763324
-0.0696707
-0.0625638
-0.0550179
-0.0470435
-0.0386528
-0.0298614
-0.0206873
-0.011151
-0.00127588
0.0089125
0.0193864
0.0301162
0.0410702
0.0522155
0.0635175
0.0749414
0.0864516
0.098013
0.10959
0.121148
0.132651
0.144066
0.15536
0.166503
0.177466
0.188223
0.198749
0.209022
0.219023
0.228734
0.23814
0.247227
0.255986
0.264408
0.272487
0.280222
0.287612
0.294653
0.301347
0.307698
0.31371
0.31939
0.324743
0.329778
0.334501
0.338923
0.343051
0.346897
0.350469
0.353779
0.356839
0.359659
0.362251
0.364626
0.366794
0.368767
0.370555
0.372168
0.373617
0.37491
0.376058
0.37707
0.377954
0.378719
0.379373
0.379922
0.380374
0.380735
0.381013
0.381213
0.381342
0.381404
0.381406
0.381352
0.381246
0.381093
0.380896
0.380658
0.380385
0.380077
0.379739
0.379373
0.378982
0.378568
0.378133
0.377678
0.377207
0.376718
0.376215
0.375699
0.37517
0.374631
0.374081
0.373522
0.372955
0.372379
0.371797
0.371209
0.370614
0.370014
0.36941
0.3688
0.368187
0.367569
0.366949
0.366325
0.3657
0.365072
0.364444
0.363816
0.363188
0.362564
0.361944
0.361331
0.360729
0.360141
0.359573
0.359031
0.358521
0.358052
0.357628
0.357245
0.356905
0.356496
0.356124
0.354795
-0.0578141
-0.0593858
-0.0622301
-0.0649295
-0.0670951
-0.0689357
-0.0706162
-0.0722227
-0.0738207
-0.0754629
-0.0771841
-0.0790046
-0.0809329
-0.0829703
-0.085111
-0.0873456
-0.0896606
-0.0920423
-0.0944735
-0.0969387
-0.0994194
-0.1019
-0.10436
-0.106785
-0.109155
-0.111455
-0.113666
-0.115772
-0.117753
-0.119596
-0.12128
-0.122793
-0.124114
-0.12523
-0.126121
-0.126773
-0.127165
-0.127286
-0.127114
-0.126637
-0.125833
-0.124692
-0.123193
-0.121325
-0.119069
-0.116415
-0.113348
-0.109858
-0.105933
-0.101567
-0.0967501
-0.0914798
-0.0857515
-0.0795661
-0.0729243
-0.0658315
-0.058294
-0.0503224
-0.0419287
-0.033129
-0.0239411
-0.0143865
-0.00448873
0.00572631
0.0162302
0.0269927
0.0379817
0.0491637
0.0605033
0.0719649
0.0835125
0.0951108
0.106724
0.118317
0.129854
0.141303
0.15263
0.163806
0.174801
0.185589
0.196147
0.206451
0.216482
0.226223
0.235659
0.244776
0.253565
0.262018
0.270129
0.277895
0.285317
0.292391
0.299118
0.305503
0.31155
0.317264
0.322653
0.327724
0.332485
0.336945
0.341112
0.344998
0.348611
0.351964
0.355066
0.35793
0.360565
0.362985
0.365197
0.367215
0.369047
0.370706
0.372198
0.373536
0.374727
0.375782
0.376709
0.377516
0.378211
0.378801
0.379292
0.379693
0.380008
0.380246
0.380411
0.380509
0.380545
0.380525
0.380451
0.380329
0.380163
0.379955
0.37971
0.37943
0.379119
0.378778
0.378412
0.378022
0.37761
0.377177
0.376727
0.376259
0.375775
0.375277
0.374767
0.374244
0.37371
0.373167
0.372614
0.372053
0.371485
0.370909
0.370326
0.369738
0.369144
0.368544
0.367939
0.367331
0.366718
0.366101
0.365481
0.364859
0.364235
0.363609
0.362984
0.362359
0.361736
0.361118
0.360507
0.359906
0.359317
0.358747
0.358197
0.357671
0.35717
0.35668
0.356192
0.355597
0.354971
0.353409
-0.0608804
-0.0622726
-0.0648002
-0.0673003
-0.0694005
-0.0712426
-0.0729586
-0.0746197
-0.0762775
-0.0779748
-0.0797414
-0.0815961
-0.083547
-0.085596
-0.087738
-0.0899655
-0.0922663
-0.0946282
-0.0970355
-0.0994741
-0.101926
-0.104378
-0.10681
-0.109208
-0.111554
-0.113833
-0.116025
-0.118117
-0.120089
-0.121928
-0.123613
-0.125133
-0.126467
-0.127601
-0.128514
-0.129194
-0.129619
-0.129775
-0.129641
-0.129205
-0.128446
-0.127349
-0.125896
-0.124073
-0.121861
-0.11925
-0.116223
-0.112771
-0.108881
-0.104544
-0.0997532
-0.0945031
-0.0887896
-0.0826133
-0.0759746
-0.0688788
-0.0613324
-0.0533459
-0.0449317
-0.036106
-0.0268876
-0.0172981
-0.00736178
0.00289443
0.0134416
0.024249
0.0352834
0.0465105
0.0578943
0.0693987
0.0809872
0.0926245
0.104275
0.115905
0.127477
0.138958
0.150316
0.16152
0.172542
0.183356
0.193937
0.204264
0.214316
0.224077
0.233533
0.242669
0.251478
0.259949
0.268079
0.275865
0.283307
0.290402
0.297151
0.303557
0.309627
0.315365
0.320779
0.325876
0.330665
0.335153
0.339351
0.343267
0.346912
0.350298
0.353436
0.356335
0.359008
0.361464
0.363715
0.365771
0.367642
0.369338
0.37087
0.372246
0.373477
0.37457
0.375536
0.376381
0.377113
0.37774
0.378267
0.378704
0.379054
0.379327
0.379525
0.379657
0.379725
0.379736
0.379693
0.379601
0.379463
0.379284
0.379066
0.378812
0.378526
0.37821
0.377868
0.3775
0.37711
0.376699
0.376268
0.37582
0.375355
0.374875
0.374381
0.373875
0.373358
0.372829
0.372291
0.371744
0.371188
0.370624
0.370054
0.369476
0.368892
0.368302
0.367707
0.367106
0.3665
0.36589
0.365276
0.364659
0.364038
0.363415
0.362789
0.362163
0.361537
0.360912
0.360291
0.359674
0.359064
0.358462
0.35787
0.357287
0.356707
0.356113
0.355486
0.35472
0.353876
0.352127
-0.0644864
-0.0656427
-0.0677582
-0.0699472
-0.0718771
-0.0736294
-0.0752983
-0.076938
-0.0785888
-0.0802851
-0.0820505
-0.0839001
-0.0858406
-0.0878738
-0.0899953
-0.0921985
-0.0944725
-0.0968063
-0.0991852
-0.101596
-0.104023
-0.10645
-0.108862
-0.111244
-0.113577
-0.115848
-0.118036
-0.120128
-0.122106
-0.123956
-0.125659
-0.127201
-0.128561
-0.129725
-0.130673
-0.13139
-0.131855
-0.132054
-0.131965
-0.131574
-0.130859
-0.129808
-0.128398
-0.126617
-0.124446
-0.121872
-0.118878
-0.115456
-0.11159
-0.107274
-0.102496
-0.0972547
-0.0915434
-0.0853628
-0.0787138
-0.0716015
-0.0640326
-0.0560178
-0.0475702
-0.0387067
-0.0294464
-0.0198122
-0.00982904
0.000475295
0.0110708
0.021926
0.0330073
0.0442802
0.0557083
0.0672548
0.078883
0.0905575
0.102243
0.113904
0.125505
0.137012
0.148393
0.159617
0.170657
0.181486
0.19208
0.202417
0.212479
0.222249
0.231711
0.240855
0.249669
0.258148
0.266284
0.274078
0.281527
0.288631
0.29539
0.301807
0.307889
0.313641
0.319071
0.324185
0.328992
0.3335
0.33772
0.341659
0.34533
0.348743
0.351909
0.354837
0.357541
0.360029
0.362313
0.364402
0.366308
0.368038
0.369605
0.371016
0.372283
0.373412
0.374413
0.375293
0.37606
0.37672
0.377283
0.377752
0.378137
0.378441
0.378673
0.378835
0.378935
0.378975
0.378962
0.378898
0.378789
0.378636
0.378444
0.378216
0.377954
0.377663
0.377343
0.376998
0.376629
0.376238
0.375827
0.375398
0.374951
0.374489
0.374012
0.373522
0.373019
0.372506
0.371981
0.371448
0.370905
0.370353
0.369794
0.369227
0.368653
0.368073
0.367486
0.366893
0.366295
0.365691
0.365083
0.364469
0.363852
0.36323
0.362605
0.361977
0.361346
0.360714
0.360081
0.359447
0.358813
0.35818
0.357545
0.356903
0.356247
0.355552
0.354795
0.353875
0.352843
0.350945
-0.0682371
-0.0691309
-0.0707869
-0.0725944
-0.0742744
-0.0758581
-0.0774079
-0.0789638
-0.0805547
-0.0822047
-0.0839308
-0.085744
-0.087649
-0.0896467
-0.0917329
-0.0939014
-0.0961423
-0.098445
-0.100796
-0.103183
-0.105589
-0.108002
-0.110404
-0.112779
-0.115111
-0.117384
-0.119581
-0.121689
-0.123689
-0.125567
-0.127301
-0.128878
-0.130277
-0.131483
-0.132474
-0.133236
-0.133748
-0.133994
-0.133952
-0.133608
-0.132939
-0.131931
-0.130562
-0.12882
-0.126683
-0.12414
-0.121173
-0.117772
-0.113922
-0.109615
-0.104842
-0.0995988
-0.0938795
-0.0876851
-0.0810163
-0.073879
-0.0662802
-0.0582315
-0.0497463
-0.0408419
-0.031538
-0.021858
-0.0118276
-0.00147556
0.00916738
0.0200688
0.0311945
0.0425094
0.0539767
0.0655596
0.0772211
0.0889254
0.100637
0.11232
0.12394
0.135462
0.146854
0.158085
0.169129
0.179959
0.190551
0.200885
0.210942
0.220705
0.23016
0.239296
0.248103
0.256574
0.264704
0.272492
0.279937
0.287038
0.293795
0.300213
0.306297
0.312053
0.317489
0.322612
0.327429
0.33195
0.336184
0.340141
0.343831
0.347266
0.350454
0.353408
0.356138
0.358653
0.360966
0.363085
0.365021
0.366783
0.368382
0.369826
0.371125
0.372288
0.373322
0.374235
0.375035
0.375729
0.376323
0.376825
0.377242
0.377578
0.377841
0.378034
0.378163
0.378233
0.378249
0.378213
0.37813
0.378004
0.377838
0.377634
0.377397
0.377129
0.376832
0.376509
0.376161
0.375791
0.375399
0.374989
0.37456
0.374115
0.373655
0.37318
0.372693
0.372194
0.371684
0.371163
0.370632
0.370093
0.369545
0.368989
0.368425
0.367854
0.367276
0.366691
0.3661
0.365502
0.364899
0.36429
0.363675
0.363055
0.36243
0.361799
0.361163
0.360523
0.359877
0.359226
0.358569
0.357902
0.357224
0.356525
0.355794
0.355005
0.354129
0.353071
0.351875
0.349857
-0.0717939
-0.0724247
-0.073607
-0.0749916
-0.0763685
-0.0777305
-0.0791107
-0.0805346
-0.0820214
-0.0835867
-0.0852416
-0.0869929
-0.0888428
-0.0907907
-0.0928323
-0.0949613
-0.0971678
-0.0994416
-0.101769
-0.104137
-0.10653
-0.108935
-0.111333
-0.113712
-0.116054
-0.118345
-0.120566
-0.122705
-0.12474
-0.126655
-0.128431
-0.130052
-0.131497
-0.13275
-0.13379
-0.134602
-0.135162
-0.135456
-0.135461
-0.135163
-0.134537
-0.133569
-0.132238
-0.13053
-0.128423
-0.125906
-0.12296
-0.119575
-0.115736
-0.111435
-0.106661
-0.101412
-0.0956807
-0.0894693
-0.0827784
-0.0756144
-0.0679847
-0.0599015
-0.0513786
-0.0424341
-0.0330882
-0.0233649
-0.0132908
-0.0028951
0.00779048
0.0187325
0.0298961
0.0412452
0.0527427
0.0643516
0.0760347
0.0877563
0.0994805
0.111172
0.122794
0.134315
0.1457
0.156922
0.167952
0.178765
0.189339
0.199652
0.209686
0.219426
0.228858
0.23797
0.246754
0.255202
0.263311
0.271079
0.278506
0.285591
0.292335
0.298743
0.304819
0.310571
0.316004
0.321128
0.325948
0.330475
0.334717
0.338686
0.34239
0.345841
0.349048
0.352023
0.354775
0.357315
0.359653
0.361799
0.363763
0.365555
0.367183
0.368659
0.369989
0.371184
0.372249
0.373195
0.374026
0.374752
0.375378
0.375913
0.37636
0.376728
0.377021
0.377244
0.377403
0.377502
0.377546
0.377538
0.377482
0.377382
0.377241
0.377063
0.37685
0.376606
0.376331
0.37603
0.375703
0.375353
0.374981
0.374589
0.374178
0.37375
0.373307
0.372848
0.372376
0.371892
0.371395
0.370888
0.37037
0.369842
0.369305
0.36876
0.368206
0.367644
0.367074
0.366498
0.365913
0.365322
0.364724
0.364119
0.363507
0.362888
0.362262
0.361629
0.360988
0.360339
0.359681
0.359012
0.35833
0.357632
0.35691
0.356156
0.355354
0.354476
0.353492
0.352311
0.350973
0.348858
-0.0749128
-0.0752922
-0.0760097
-0.0769551
-0.077993
-0.0790915
-0.0802607
-0.0815148
-0.0828641
-0.0843163
-0.0858763
-0.087547
-0.0893284
-0.0912176
-0.0932092
-0.0952954
-0.0974662
-0.0997108
-0.102016
-0.104369
-0.106754
-0.109158
-0.111564
-0.113959
-0.116324
-0.118646
-0.120903
-0.12308
-0.125157
-0.127117
-0.128939
-0.130609
-0.132103
-0.133406
-0.134496
-0.135358
-0.135967
-0.136309
-0.136359
-0.136104
-0.135519
-0.13459
-0.133293
-0.131615
-0.129535
-0.127041
-0.124113
-0.120742
-0.116911
-0.112613
-0.107838
-0.102581
-0.0968382
-0.0906099
-0.0838977
-0.076708
-0.0690489
-0.060933
-0.0523749
-0.0433933
-0.0340094
-0.024248
-0.0141366
-0.00370552
0.00701278
0.0179842
0.0291729
0.0405425
0.0520555
0.0636745
0.0753626
0.0870836
0.0988015
0.110481
0.122086
0.133584
0.144942
0.156133
0.167128
0.177904
0.188437
0.198709
0.208701
0.218398
0.227788
0.236858
0.245601
0.254011
0.262083
0.269817
0.277213
0.28427
0.290989
0.297375
0.303434
0.309171
0.314594
0.319709
0.324526
0.329053
0.333298
0.337273
0.340987
0.34445
0.347672
0.350664
0.353435
0.355997
0.358358
0.360529
0.36252
0.364339
0.365996
0.367501
0.368862
0.370087
0.371184
0.372161
0.373024
0.373781
0.374439
0.375004
0.375483
0.375882
0.376206
0.376459
0.376648
0.376776
0.376848
0.376867
0.376839
0.376765
0.37665
0.376497
0.376309
0.376088
0.375836
0.375557
0.375251
0.374921
0.374569
0.374195
0.373803
0.373393
0.372966
0.372523
0.372066
0.371596
0.371114
0.370619