/*--------------------------------*- C++ -*----------------------------------*\
  =========                 |
  \\      /  F ield         | OpenFOAM: The Open Source CFD Toolbox
   \\    /   O peration     | Website:  https://openfoam.org
    \\  /    A nd           | Version:  10
     \\/     M anipulation  |
\*---------------------------------------------------------------------------*/
FoamFile
{
    format      ascii;
    class       surfaceScalarField;
    location    "100";
    object      phi;
}
// * * * * * * * * * * * * * * * * * * * * * * * * * * * * * * * * * * * * * //

dimensions      [0 3 -1 0 0 0 0];

internalField   nonuniform List<scalar> 
24170
(
3.54199e-08
-1.95111e-08
5.5246e-08
-1.98263e-08
7.16347e-08
-1.63889e-08
8.56202e-08
-1.39858e-08
9.78579e-08
-1.22377e-08
1.08248e-07
-1.039e-08
1.17042e-07
-8.79405e-09
1.24516e-07
-7.47445e-09
1.30908e-07
-6.39235e-09
1.36421e-07
-5.51301e-09
1.41226e-07
-4.80476e-09
1.45473e-07
-4.24724e-09
1.49309e-07
-3.83616e-09
1.52904e-07
-3.59526e-09
1.56512e-07
-3.60828e-09
1.60697e-07
-4.18586e-09
1.6689e-07
-6.19369e-09
-1.49463e-08
1.81836e-07
7.59586e-08
-4.37793e-08
9.99363e-08
-4.38044e-08
1.2042e-07
-3.68725e-08
1.38322e-07
-3.18888e-08
1.53815e-07
-2.77309e-08
1.67238e-07
-2.38135e-08
1.78882e-07
-2.04378e-08
1.8902e-07
-1.76124e-08
1.97897e-07
-1.52698e-08
2.05725e-07
-1.33413e-08
2.12686e-07
-1.17663e-08
2.18944e-07
-1.05054e-08
2.24656e-07
-9.54841e-09
2.29995e-07
-8.93532e-09
2.35192e-07
-8.80554e-09
2.40585e-07
-9.57951e-09
2.46676e-07
-1.22853e-08
-1.95539e-08
2.51283e-07
1.13648e-07
-6.33365e-08
1.37389e-07
-6.75457e-08
1.59141e-07
-5.86242e-08
1.78147e-07
-5.08949e-08
1.94624e-07
-4.42079e-08
2.09031e-07
-3.82206e-08
2.21664e-07
-3.3071e-08
2.3278e-07
-2.87279e-08
2.42608e-07
-2.50976e-08
2.51349e-07
-2.20825e-08
2.5918e-07
-1.95977e-08
2.66261e-07
-1.7586e-08
2.72741e-07
-1.60283e-08
2.78773e-07
-1.49672e-08
2.84519e-07
-1.45516e-08
2.90106e-07
-1.51665e-08
2.95366e-07
-1.75463e-08
-2.26103e-08
2.98423e-07
1.57507e-07
-7.69101e-08
1.78533e-07
-8.85713e-08
1.9971e-07
-7.9801e-08
2.18708e-07
-6.98932e-08
2.35406e-07
-6.09059e-08
2.50153e-07
-5.29679e-08
2.63205e-07
-4.6123e-08
2.74786e-07
-4.03094e-08
2.85102e-07
-3.54141e-08
2.94337e-07
-3.13176e-08
3.02655e-07
-2.79154e-08
3.10203e-07
-2.51344e-08
3.17118e-07
-2.29433e-08
3.23524e-07
-2.13731e-08
3.29518e-07
-2.05466e-08
3.35094e-07
-2.07424e-08
3.39908e-07
-2.23601e-08
-2.54847e-08
3.42782e-07
2.09613e-07
-8.44288e-08
2.26745e-07
-1.05703e-07
2.46011e-07
-9.90671e-08
2.64133e-07
-8.80156e-08
2.80447e-07
-7.72198e-08
2.95056e-07
-6.75771e-08
3.08122e-07
-5.91891e-08
3.19818e-07
-5.20047e-08
3.30312e-07
-4.59084e-08
3.39764e-07
-4.07691e-08
3.48317e-07
-3.64688e-08
3.56104e-07
-3.2921e-08
3.6324e-07
-3.00795e-08
3.6982e-07
-2.79535e-08
3.75893e-07
-2.6619e-08
3.81384e-07
-2.62338e-08
3.8596e-07
-2.69364e-08
-2.84447e-08
3.88921e-07
2.71483e-07
-8.64243e-08
2.83976e-07
-1.18196e-07
3.00274e-07
-1.15365e-07
3.16699e-07
-1.04441e-07
3.3201e-07
-9.25308e-08
3.45997e-07
-8.15642e-08
3.58677e-07
-7.18694e-08
3.70145e-07
-6.34727e-08
3.8052e-07
-5.62842e-08
3.89927e-07
-5.01757e-08
3.98483e-07
-4.50248e-08
4.06296e-07
-4.07348e-08
4.13461e-07
-3.72444e-08
4.20043e-07
-3.45352e-08
4.26054e-07
-3.26304e-08
4.31401e-07
-3.1581e-08
4.35816e-07
-3.13511e-08
-3.15399e-08
4.38911e-07
3.44471e-07
-8.38396e-08
3.51881e-07
-1.25606e-07
3.64346e-07
-1.27829e-07
3.78256e-07
-1.18351e-07
3.91908e-07
-1.06182e-07
4.04743e-07
-9.43989e-08
4.16597e-07
-8.37242e-08
4.27464e-07
-7.43397e-08
4.37398e-07
-6.62177e-08
4.46476e-07
-5.92533e-08
4.54782e-07
-5.33308e-08
4.62396e-07
-4.83495e-08
4.69386e-07
-4.42344e-08
4.75791e-07
-4.094e-08
4.81601e-07
-3.84404e-08
4.86725e-07
-3.67051e-08
4.90973e-07
-3.55987e-08
-3.47255e-08
4.94159e-07
4.29731e-07
-7.78329e-08
4.31966e-07
-1.27841e-07
4.39943e-07
-1.35806e-07
4.50557e-07
-1.28965e-07
4.61867e-07
-1.17492e-07
4.72969e-07
-1.05501e-07
4.83508e-07
-9.4263e-08
4.93353e-07
-8.41856e-08
5.02479e-07
-7.53435e-08
5.10906e-07
-6.76804e-08
5.18677e-07
-6.11012e-08
5.25837e-07
-5.55098e-08
5.32425e-07
-5.08224e-08
5.38456e-07
-4.69709e-08
5.43906e-07
-4.38908e-08
5.48698e-07
-4.14975e-08
5.52712e-07
-3.96121e-08
-3.78957e-08
5.55882e-07
5.28216e-07
-6.96108e-08
5.25559e-07
-1.25185e-07
5.28673e-07
-1.3892e-07
5.35314e-07
-1.35606e-07
5.43593e-07
-1.25772e-07
5.52351e-07
-1.14259e-07
5.61038e-07
-1.0295e-07
5.69394e-07
-9.25414e-08
5.773e-07
-8.32493e-08
5.8471e-07
-7.50911e-08
5.91619e-07
-6.80098e-08
5.98033e-07
-6.1924e-08
6.0396e-07
-5.67493e-08
6.09392e-07
-5.24028e-08
6.14297e-07
-4.87953e-08
6.18612e-07
-4.5813e-08
6.2227e-07
-4.32703e-08
-4.08966e-08
6.25272e-07
6.40661e-07
-6.03005e-08
6.33735e-07
-1.18259e-07
6.31952e-07
-1.37136e-07
6.34147e-07
-1.37801e-07
6.38759e-07
-1.30384e-07
6.44559e-07
-1.20059e-07
6.5083e-07
-1.09221e-07
6.57189e-07
-9.89006e-08
6.63421e-07
-8.94811e-08
6.69408e-07
-8.1078e-08
6.75088e-07
-7.369e-08
6.80427e-07
-6.72629e-08
6.85399e-07
-6.17213e-08
6.89974e-07
-5.69785e-08
6.94113e-07
-5.29344e-08
6.97766e-07
-4.94662e-08
7.00899e-07
-4.64032e-08
-4.35369e-08
7.0354e-07
7.67544e-07
-5.08392e-08
7.57249e-07
-1.07964e-07
7.5087e-07
-1.30758e-07
7.48422e-07
-1.35353e-07
7.48894e-07
-1.30855e-07
7.51178e-07
-1.22344e-07
7.54482e-07
-1.12525e-07
7.58321e-07
-1.0274e-07
7.62394e-07
-9.35541e-08
7.66514e-07
-8.51977e-08
7.70562e-07
-7.77384e-08
7.74461e-07
-7.11615e-08
7.7815e-07
-6.54109e-08
7.81579e-07
-6.04072e-08
7.84697e-07
-5.60528e-08
7.87462e-07
-5.22308e-08
7.89855e-07
-4.87967e-08
-4.5591e-08
7.91909e-07
7.57496e-07
-4.29547e-08
7.47108e-07
-9.75752e-08
7.38644e-07
-1.22294e-07
7.33084e-07
-1.29793e-07
7.30116e-07
-1.27887e-07
7.29014e-07
-1.21242e-07
7.29146e-07
-1.12656e-07
7.30064e-07
-1.03658e-07
7.31469e-07
-9.49591e-08
7.33158e-07
-8.68872e-08
7.34994e-07
-7.95741e-08
7.36877e-07
-7.30443e-08
7.38732e-07
-6.72658e-08
7.40498e-07
-6.21731e-08
7.42124e-07
-5.76792e-08
7.43574e-07
-5.36805e-08
7.44826e-07
-5.00492e-08
-4.66939e-08
7.45929e-07
1.00243e-06
-3.48285e-08
9.89274e-07
-8.44236e-08
9.76791e-07
-1.09811e-07
9.66802e-07
-1.19804e-07
9.5958e-07
-1.20665e-07
9.54673e-07
-1.16336e-07
9.51501e-07
-1.09484e-07
9.4957e-07
-1.01727e-07
9.48514e-07
-9.39036e-08
9.4807e-07
-8.64429e-08
9.48042e-07
-7.95464e-08
9.48286e-07
-7.32884e-08
9.4869e-07
-6.76692e-08
9.49164e-07
-6.26472e-08
9.49639e-07
-5.81542e-08
9.50066e-07
-5.41072e-08
9.50425e-07
-5.04074e-08
-4.70032e-08
9.50734e-07
1.32759e-06
-2.69275e-08
1.31216e-06
-6.89921e-08
1.2955e-06
-9.31495e-08
1.28028e-06
-1.04587e-07
1.26752e-06
-1.079e-07
1.25726e-06
-1.06072e-07
1.24915e-06
-1.01374e-07
1.24276e-06
-9.53419e-08
1.23772e-06
-8.88643e-08
1.23372e-06
-8.24424e-08
1.23051e-06
-7.63404e-08
1.22791e-06
-7.06834e-08
1.22575e-06
-6.55116e-08
1.22392e-06
-6.08147e-08
1.22232e-06
-5.65524e-08
1.22088e-06
-5.26683e-08
1.21957e-06
-4.90979e-08
-4.58138e-08
1.21838e-06
1.75354e-06
-1.95393e-08
1.73672e-06
-5.21641e-08
1.71639e-06
-7.28226e-08
1.69581e-06
-8.40027e-08
1.67667e-06
-8.87677e-08
1.65971e-06
-8.91113e-08
1.64501e-06
-8.66739e-08
1.63238e-06
-8.27071e-08
1.62153e-06
-7.80164e-08
1.61218e-06
-7.30981e-08
1.60409e-06
-6.82426e-08
1.59701e-06
-6.36102e-08
1.59078e-06
-5.92769e-08
1.58523e-06
-5.52655e-08
1.58025e-06
-5.1567e-08
1.57573e-06
-4.81552e-08
1.57163e-06
-4.49983e-08
-4.20889e-08
1.56791e-06
2.29918e-06
-1.26557e-08
2.28171e-06
-3.46955e-08
2.25865e-06
-4.97547e-08
2.23334e-06
-5.86992e-08
2.20793e-06
-6.33545e-08
2.18372e-06
-6.49053e-08
2.16135e-06
-6.43004e-08
2.141e-06
-6.23553e-08
2.12264e-06
-5.96554e-08
2.10613e-06
-5.65851e-08
2.09127e-06
-5.33909e-08
2.07789e-06
-5.02255e-08
2.06579e-06
-4.7176e-08
2.05481e-06
-4.42858e-08
2.04481e-06
-4.15699e-08
2.03568e-06
-3.90283e-08
2.02734e-06
-3.66555e-08
-3.4462e-08
2.01971e-06
2.97232e-06
-5.89201e-09
2.95429e-06
-1.66581e-08
2.92903e-06
-2.44956e-08
2.8998e-06
-2.94756e-08
2.86888e-06
-3.24278e-08
2.83786e-06
-3.38841e-08
2.80778e-06
-3.42215e-08
2.77922e-06
-3.38006e-08
2.75247e-06
-3.29073e-08
2.72763e-06
-3.17359e-08
2.70465e-06
-3.04171e-08
2.68347e-06
-2.90389e-08
2.66395e-06
-2.7658e-08
2.64597e-06
-2.63078e-08
2.62941e-06
-2.50067e-08
2.61414e-06
-2.37647e-08
2.60008e-06
-2.25892e-08
-2.15013e-08
2.58711e-06
3.74866e-06
1.58576e-09
3.72912e-06
2.88801e-09
3.70102e-06
3.60573e-09
3.66763e-06
3.90952e-09
3.63135e-06
3.84905e-09
3.59394e-06
3.53394e-09
3.55664e-06
3.06932e-09
3.52032e-06
2.51894e-09
3.4855e-06
1.92208e-09
3.45245e-06
1.30841e-09
3.42133e-06
7.00241e-10
3.39218e-06
1.12856e-10
3.36497e-06
-4.43393e-10
3.33962e-06
-9.61812e-10
3.31605e-06
-1.43889e-09
3.29416e-06
-1.8748e-09
3.27385e-06
-2.27414e-09
-2.65326e-09
3.255e-06
4.53044e-06
8.65256e-09
4.5078e-06
2.55301e-08
4.47414e-06
3.72649e-08
4.43385e-06
4.42008e-08
4.39001e-06
4.76848e-08
4.34484e-06
4.87025e-08
4.29992e-06
4.79917e-08
4.25628e-06
4.61633e-08
4.21452e-06
4.36737e-08
4.175e-06
4.08362e-08
4.13784e-06
3.78592e-08
4.10307e-06
3.48809e-08
4.07064e-06
3.19889e-08
4.04044e-06
2.9236e-08
4.01235e-06
2.66507e-08
3.98623e-06
2.4245e-08
3.96194e-06
2.20179e-08
1.99493e-08
3.93933e-06
3.1144e-06
1.81765e-08
3.09195e-06
4.79769e-08
3.06217e-06
6.7047e-08
3.02906e-06
7.73116e-08
2.99522e-06
8.15226e-08
2.96229e-06
8.1626e-08
2.9312e-06
7.90897e-08
2.90233e-06
7.50308e-08
2.87579e-06
7.02072e-08
2.85153e-06
6.50988e-08
2.82939e-06
5.99975e-08
2.8092e-06
5.50745e-08
2.79076e-06
5.04249e-08
2.77391e-06
4.60932e-08
2.75846e-06
4.20944e-08
2.74428e-06
3.84236e-08
2.73124e-06
3.50648e-08
3.19896e-08
2.7192e-06
2.47122e-06
2.87232e-08
2.4473e-06
7.18942e-08
2.41845e-06
9.59004e-08
2.38925e-06
1.06505e-07
2.36196e-06
1.08812e-07
2.33753e-06
1.06065e-07
2.31611e-06
1.00506e-07
2.29749e-06
9.36481e-08
2.28132e-06
8.63765e-08
2.26724e-06
7.91823e-08
2.25491e-06
7.23235e-08
2.24406e-06
6.59266e-08
2.23444e-06
6.00393e-08
2.22587e-06
5.46652e-08
2.21818e-06
4.97834e-08
2.21125e-06
4.53616e-08
2.20495e-06
4.13608e-08
3.77374e-08
2.1992e-06
1.90371e-06
4.17349e-08
1.87976e-06
9.58401e-08
1.85551e-06
1.20154e-07
1.83455e-06
1.27464e-07
1.8177e-06
1.25657e-07
1.80468e-06
1.19082e-07
1.7948e-06
1.10391e-07
1.78731e-06
1.01133e-07
1.78163e-06
9.20627e-08
1.77729e-06
8.35249e-08
1.77394e-06
7.56644e-08
1.77135e-06
6.85194e-08
1.76932e-06
6.20715e-08
1.76771e-06
5.62758e-08
1.76641e-06
5.10757e-08
1.76536e-06
4.64131e-08
1.76449e-06
4.22306e-08
3.84732e-08
1.76376e-06
1.42687e-06
5.67538e-08
1.40671e-06
1.16005e-07
1.39151e-06
1.3535e-07
1.3821e-06
1.36874e-07
1.37745e-06
1.30307e-07
1.37619e-06
1.20338e-07
1.37712e-06
1.09467e-07
1.37937e-06
9.8879e-08
1.3824e-06
8.90335e-08
1.38584e-06
8.00818e-08
1.38946e-06
7.20426e-08
1.39311e-06
6.48696e-08
1.3967e-06
5.84895e-08
1.40015e-06
5.28203e-08
1.40344e-06
4.77819e-08
1.40656e-06
4.32987e-08
1.40948e-06
3.93047e-08
3.57398e-08
1.41222e-06
1.04091e-06
7.15837e-08
1.02913e-06
1.27789e-07
1.02592e-06
1.38557e-07
1.02886e-06
1.33937e-07
1.03557e-06
1.23596e-07
1.04419e-06
1.11715e-07
1.05356e-06
1.00103e-07
1.06303e-06
8.94064e-08
1.07227e-06
7.97966e-08
1.08108e-06
7.12665e-08
1.08938e-06
6.37389e-08
1.09714e-06
5.7112e-08
1.10435e-06
5.12804e-08
1.11103e-06
4.61438e-08
1.1172e-06
4.16114e-08
1.12289e-06
3.76031e-08
1.12815e-06
3.40511e-08
3.08982e-08
1.13299e-06
7.38437e-07
8.2773e-08
7.38375e-07
1.27852e-07
7.47569e-07
1.29362e-07
7.61301e-07
1.20205e-07
7.76751e-07
1.08146e-07
7.92313e-07
9.61534e-08
8.07251e-07
8.51645e-08
8.21271e-07
7.53866e-08
8.34268e-07
6.67992e-08
8.46233e-07
5.93019e-08
8.57203e-07
5.27685e-08
8.67241e-07
4.70739e-08
8.76418e-07
4.21032e-08
8.84807e-07
3.77546e-08
8.92478e-07
3.39398e-08
8.99499e-07
3.05824e-08
9.0593e-07
2.762e-08
2.50046e-08
9.11823e-07
5.08369e-07
8.65232e-08
5.20992e-07
1.15229e-07
5.40656e-07
1.09698e-07
5.62146e-07
9.87154e-08
5.8309e-07
8.72021e-08
6.02625e-07
7.66181e-08
6.20537e-07
6.72529e-08
6.36832e-07
5.90911e-08
6.51602e-07
5.20296e-08
6.64968e-07
4.59361e-08
6.7706e-07
4.06768e-08
6.88005e-07
3.61284e-08
6.97923e-07
3.21852e-08
7.06922e-07
2.87553e-08
7.151e-07
2.57616e-08
7.22545e-07
2.31381e-08
7.29333e-07
2.08311e-08
1.88068e-08
7.35531e-07
3.38165e-07
7.978e-08
3.6191e-07
9.14829e-08
3.88628e-07
8.29806e-08
4.1443e-07
7.29134e-08
4.37927e-07
6.37049e-08
4.59022e-07
5.55231e-08
4.77907e-07
4.83685e-08
4.94791e-07
4.22067e-08
5.09889e-07
3.69318e-08
5.23404e-07
3.24213e-08
5.35521e-07
2.85589e-08
5.46408e-07
2.52425e-08
5.56208e-07
2.23844e-08
5.65052e-07
1.99119e-08
5.73049e-07
1.77642e-08
5.80298e-07
1.58898e-08
5.86883e-07
1.42455e-08
1.28144e-08
5.92875e-07
2.15304e-07
6.10486e-08
2.46537e-07
6.02498e-08
2.76321e-07
5.31965e-08
3.03346e-07
4.58877e-08
3.27083e-07
3.99685e-08
3.47956e-07
3.465e-08
3.66372e-07
2.99529e-08
3.82642e-07
2.59365e-08
3.97045e-07
2.25292e-08
4.09827e-07
1.96395e-08
4.21201e-07
1.71845e-08
4.31352e-07
1.50915e-08
4.40437e-07
1.32994e-08
4.48591e-07
1.1758e-08
4.55929e-07
1.04264e-08
4.6255e-07
9.27003e-09
4.68541e-07
8.25355e-09
7.37961e-09
4.73975e-07
1.27955e-07
3.10771e-08
1.6095e-07
2.72548e-08
1.89669e-07
2.44779e-08
2.15213e-07
2.03429e-08
2.37361e-07
1.78208e-08
2.56631e-07
1.53797e-08
2.73439e-07
1.31457e-08
2.88125e-07
1.12509e-08
3.00993e-07
9.66066e-09
3.12308e-07
8.32429e-09
3.22293e-07
7.20003e-09
3.31134e-07
6.25082e-09
3.38988e-07
5.44495e-09
3.45989e-07
4.75776e-09
3.52247e-07
4.1689e-09
3.57855e-07
3.66193e-09
3.62896e-07
3.21219e-09
2.81948e-09
3.67456e-07
5.86619e-08
8.59167e-08
1.10395e-07
1.30738e-07
1.48558e-07
1.63938e-07
1.77084e-07
1.88335e-07
1.97995e-07
2.0632e-07
2.1352e-07
2.19771e-07
2.25216e-07
2.29973e-07
2.34142e-07
2.37804e-07
2.41016e-07
2.43836e-07
6.98447e-09
-6.98196e-09
1.62228e-08
-9.23483e-09
2.29798e-08
-6.75325e-09
2.60005e-08
-3.018e-09
2.52747e-08
7.2928e-10
2.13655e-08
3.91138e-09
1.50315e-08
6.33744e-09
6.90969e-09
8.12333e-09
-2.59751e-09
9.51049e-09
-1.33684e-08
1.07713e-08
-2.53767e-08
1.20109e-08
-3.85968e-08
1.32191e-08
-5.29902e-08
1.43956e-08
-6.84994e-08
1.55071e-08
-8.50097e-08
1.65125e-08
-1.02392e-07
1.73788e-08
-1.20473e-07
1.80851e-08
-1.39098e-07
1.86208e-08
-1.58079e-07
1.89836e-08
-1.77261e-07
1.91778e-08
-1.96472e-07
1.92145e-08
-2.15587e-07
1.91092e-08
-2.34461e-07
1.8878e-08
-2.53004e-07
1.85364e-08
-2.71103e-07
1.81021e-08
-2.88702e-07
1.75915e-08
-3.05718e-07
1.70203e-08
-3.22126e-07
1.64017e-08
-3.37869e-07
1.57479e-08
-3.52944e-07
1.50684e-08
-3.67309e-07
1.43718e-08
-3.80979e-07
1.36637e-08
-3.93921e-07
1.29496e-08
-4.06157e-07
1.22322e-08
-4.17662e-07
1.15144e-08
-4.28462e-07
1.07965e-08
-4.38531e-07
1.00798e-08
-4.47898e-07
9.36267e-09
-4.56534e-07
8.64572e-09
-4.64465e-07
7.92645e-09
-4.71661e-07
7.20488e-09
-4.78144e-07
6.47788e-09
-4.8388e-07
5.74514e-09
-4.88888e-07
5.00292e-09
-4.93129e-07
4.25033e-09
-4.96615e-07
3.48258e-09
-4.99303e-07
2.69812e-09
-5.01199e-07
1.8924e-09
-5.02257e-07
1.06872e-09
-5.02499e-07
2.37835e-10
-5.01933e-07
-5.56511e-10
-5.00637e-07
-1.3015e-09
-4.98609e-07
-2.01978e-09
-4.95887e-07
-2.72562e-09
-4.92454e-07
-3.4227e-09
-4.8834e-07
-4.11555e-09
-4.83527e-07
-4.802e-09
-4.78042e-07
-5.48348e-09
-4.71872e-07
-6.15634e-09
-4.65047e-07
-6.82152e-09
-4.57558e-07
-7.47481e-09
-4.49435e-07
-8.11649e-09
-4.40677e-07
-8.74241e-09
-4.31315e-07
-9.35276e-09
-4.21356e-07
-9.94349e-09
-4.10831e-07
-1.05147e-08
-3.99754e-07
-1.10629e-08
-3.8816e-07
-1.15843e-08
-3.76063e-07
-1.2084e-08
-3.6349e-07
-1.25639e-08
-3.50475e-07
-1.30037e-08
-3.37053e-07
-1.34111e-08
-3.23251e-07
-1.37906e-08
-3.091e-07
-1.41383e-08
-2.94636e-07
-1.44524e-08
-2.79886e-07
-1.47325e-08
-2.64893e-07
-1.49785e-08
-2.49683e-07
-1.51899e-08
-2.343e-07
-1.53676e-08
-2.18766e-07
-1.55104e-08
-2.0313e-07
-1.56202e-08
-1.87409e-07
-1.56963e-08
-1.71654e-07
-1.57414e-08
-1.55875e-07
-1.57537e-08
-1.40124e-07
-1.57374e-08
-1.2441e-07
-1.56907e-08
-1.08784e-07
-1.56186e-08
-9.32573e-08
-1.5519e-08
-7.7868e-08
-1.53958e-08
-6.26333e-08
-1.52511e-08
-4.75592e-08
-1.50844e-08
-3.26687e-08
-1.48944e-08
-1.79883e-08
-1.46788e-08
-3.54933e-09
-1.44357e-08
1.06712e-08
-1.42149e-08
2.46716e-08
-1.39943e-08
3.84012e-08
-1.37216e-08
5.18326e-08
-1.34225e-08
6.49507e-08
-1.31067e-08
7.77416e-08
-1.27779e-08
9.01977e-08
-1.244e-08
1.02312e-07
-1.20941e-08
1.14079e-07
-1.17434e-08
1.25495e-07
-1.13874e-08
1.36553e-07
-1.10299e-08
1.47252e-07
-1.06698e-08
1.57586e-07
-1.0311e-08
1.67561e-07
-9.95179e-09
1.77172e-07
-9.59507e-09
1.86426e-07
-9.23932e-09
1.95325e-07
-8.88951e-09
2.03877e-07
-8.54228e-09
2.12082e-07
-8.20045e-09
2.19948e-07
-7.86167e-09
2.27478e-07
-7.52941e-09
2.3468e-07
-7.2014e-09
2.41558e-07
-6.88067e-09
2.4812e-07
-6.56468e-09
2.54369e-07
-6.25561e-09
2.60316e-07
-5.95187e-09
2.65968e-07
-5.65568e-09
2.71335e-07
-5.3655e-09
2.76422e-07
-5.08366e-09
2.81236e-07
-4.80855e-09
2.85779e-07
-4.54273e-09
2.90065e-07
-4.28383e-09
2.94096e-07
-4.03397e-09
2.97885e-07
-3.79123e-09
3.01438e-07
-3.55754e-09
3.04764e-07
-3.33055e-09
3.0787e-07
-3.11197e-09
3.10764e-07
-2.8999e-09
3.13452e-07
-2.69577e-09
3.15944e-07
-2.49782e-09
3.18243e-07
-2.30817e-09
3.20361e-07
-2.12551e-09
3.22303e-07
-1.95132e-09
3.24077e-07
-1.78399e-09
3.25689e-07
-1.62454e-09
3.27147e-07
-1.47175e-09
3.28459e-07
-1.32626e-09
3.29633e-07
-1.18717e-09
3.30676e-07
-1.05446e-09
3.31594e-07
-9.27732e-10
3.32392e-07
-8.07395e-10
3.33077e-07
-6.93122e-10
3.33655e-07
-5.85146e-10
3.34132e-07
-4.83043e-10
3.34513e-07
-3.86835e-10
3.34803e-07
-2.95971e-10
3.35008e-07
-2.10409e-10
3.35133e-07
-1.293e-10
3.35179e-07
-5.13136e-11
3.35146e-07
2.79124e-11
3.35035e-07
1.06236e-10
3.34854e-07
1.77441e-10
3.34609e-07
2.40817e-10
3.34307e-07
2.98066e-10
3.33952e-07
3.50669e-10
3.33548e-07
4.00155e-10
3.33098e-07
4.4762e-10
3.326e-07
4.9431e-10
3.32056e-07
5.41474e-10
3.31463e-07
5.9078e-10
3.30817e-07
6.43806e-10
3.30112e-07
7.02868e-10
3.29339e-07
7.70994e-10
3.28486e-07
8.51705e-10
3.27535e-07
9.49521e-10
3.26465e-07
1.06916e-09
3.25239e-07
1.22425e-09
3.23806e-07
1.43263e-09
3.22093e-07
1.71215e-09
3.19972e-07
2.12067e-09
3.17244e-07
2.72829e-09
3.13604e-07
3.63964e-09
3.08494e-07
5.1098e-09
3.00936e-07
7.55828e-09
2.88768e-07
1.21683e-08
2.05292e-08
2.68239e-07
5.54671e-09
-1.25269e-08
7.20541e-09
-1.08913e-08
4.98409e-09
-4.52979e-09
-7.87341e-11
2.04642e-09
-7.39655e-09
8.04891e-09
-1.67463e-08
1.32623e-08
-2.80347e-08
1.76275e-08
-4.11301e-08
2.12196e-08
-5.58269e-08
2.42085e-08
-7.18301e-08
2.67748e-08
-8.88595e-08
2.90411e-08
-1.06699e-07
3.10585e-08
-1.25137e-07
3.28336e-08
-1.43983e-07
3.43526e-08
-1.63065e-07
3.5595e-08
-1.82228e-07
3.65408e-08
-2.0132e-07
3.71783e-08
-2.2021e-07
3.75095e-08
-2.38775e-07
3.75488e-08
-2.56918e-07
3.73198e-08
-2.74554e-07
3.68515e-08
-2.91623e-07
3.61758e-08
-3.08069e-07
3.53246e-08
-3.23863e-07
3.43288e-08
-3.38977e-07
3.32171e-08
-3.53403e-07
3.20155e-08
-3.67128e-07
3.07465e-08
-3.80158e-07
2.94295e-08
-3.92489e-07
2.80801e-08
-4.04133e-07
2.6711e-08
-4.15091e-07
2.53316e-08
-4.25378e-07
2.3949e-08
-4.34994e-07
2.25679e-08
-4.43954e-07
2.11914e-08
-4.52256e-07
1.98208e-08
-4.59917e-07
1.84562e-08
-4.6693e-07
1.70971e-08
-4.7331e-07
1.57419e-08
-4.7905e-07
1.43889e-08
-4.84161e-07
1.3036e-08
-4.88634e-07
1.16808e-08
-4.92478e-07
1.0321e-08
-4.95684e-07
8.95429e-09
-4.98261e-07
7.57866e-09
-5.002e-07
6.19328e-09
-5.01515e-07
4.79804e-09
-5.02208e-07
3.39548e-09
-5.02305e-07
1.98991e-09
-5.01821e-07
5.88802e-10
-5.00781e-07
-8.01186e-10
-4.99152e-07
-2.18235e-09
-4.96893e-07
-3.56073e-09
-4.93973e-07
-4.93581e-09
-4.9039e-07
-6.30751e-09
-4.86134e-07
-7.67462e-09
-4.81211e-07
-9.03619e-09
-4.75619e-07
-1.03895e-08
-4.69366e-07
-1.17325e-08
-4.62455e-07
-1.30614e-08
-4.54899e-07
-1.43734e-08
-4.46703e-07
-1.56642e-08
-4.37884e-07
-1.69304e-08
-4.28451e-07
-1.81677e-08
-4.18424e-07
-1.93726e-08
-4.07819e-07
-2.05407e-08
-3.96659e-07
-2.16686e-08
-3.84962e-07
-2.27522e-08
-3.72752e-07
-2.37882e-08
-3.60053e-07
-2.47753e-08
-3.469e-07
-2.57113e-08
-3.33311e-07
-2.65861e-08
-3.19318e-07
-2.73984e-08
-3.04951e-07
-2.81503e-08
-2.90243e-07
-2.88396e-08
-2.75224e-07
-2.94636e-08
-2.59926e-07
-3.00212e-08
-2.44384e-07
-3.05115e-08
-2.2863e-07
-3.09341e-08
-2.12698e-07
-3.12894e-08
-1.9662e-07
-3.15774e-08
-1.80431e-07
-3.17994e-08
-1.64159e-07
-3.19561e-08
-1.47841e-07
-3.20499e-08
-1.31502e-07
-3.20816e-08
-1.15175e-07
-3.20545e-08
-9.88855e-08
-3.197e-08
-8.26655e-08
-3.18321e-08
-6.65385e-08
-3.16425e-08
-5.05326e-08
-3.14059e-08
-3.46662e-08
-3.11245e-08
-1.89518e-08
-3.08032e-08
-3.40108e-09
-3.04456e-08
1.19733e-08
-3.00508e-08
2.7156e-08
-2.96152e-08
4.20906e-08
-2.9145e-08
5.67405e-08
-2.86397e-08
7.11169e-08
-2.80921e-08
8.52109e-08
-2.75105e-08
9.90132e-08
-2.69011e-08
1.12513e-07
-2.62698e-08
1.25705e-07
-2.56203e-08
1.3858e-07
-2.49565e-08
1.51134e-07
-2.42814e-08
1.63362e-07
-2.35979e-08
1.75259e-07
-2.29086e-08
1.86822e-07
-2.22161e-08
1.9805e-07
-2.15228e-08
2.08941e-07
-2.08305e-08
2.19498e-07
-2.01408e-08
2.29722e-07
-1.94551e-08
2.39616e-07
-1.8776e-08
2.49182e-07
-1.81036e-08
2.58424e-07
-1.74392e-08
2.67347e-07
-1.67828e-08
2.75955e-07
-1.61362e-08
2.84253e-07
-1.54995e-08
2.92245e-07
-1.48738e-08
2.99935e-07
-1.42588e-08
3.07331e-07
-1.36553e-08
3.14438e-07
-1.30638e-08
3.21267e-07
-1.24858e-08
3.27824e-07
-1.19207e-08
3.34113e-07
-1.13696e-08
3.40139e-07
-1.08323e-08
3.45909e-07
-1.031e-08
3.51427e-07
-9.80197e-09
3.56701e-07
-9.30877e-09
3.61737e-07
-8.8298e-09
3.66542e-07
-8.36565e-09
3.71123e-07
-7.91526e-09
3.75486e-07
-7.4792e-09
3.79638e-07
-7.05689e-09
3.83586e-07
-6.6487e-09
3.87337e-07
-6.25381e-09
3.90896e-07
-5.87322e-09
3.9427e-07
-5.50645e-09
3.97466e-07
-5.1539e-09
4.00488e-07
-4.81501e-09
4.03343e-07
-4.48947e-09
4.06037e-07
-4.17688e-09
4.08577e-07
-3.87707e-09
4.10969e-07
-3.58959e-09
4.1322e-07
-3.31382e-09
4.15334e-07
-3.04974e-09
4.17317e-07
-2.79713e-09
4.19174e-07
-2.55605e-09
4.20909e-07
-2.32616e-09
4.22528e-07
-2.10735e-09
4.24036e-07
-1.89911e-09
4.25437e-07
-1.7011e-09
4.26735e-07
-1.51271e-09
4.27935e-07
-1.33343e-09
4.29042e-07
-1.16235e-09
4.30064e-07
-9.98469e-10
4.31008e-07
-8.40895e-10
4.31872e-07
-6.90338e-10
4.32657e-07
-5.47787e-10
4.33365e-07
-4.1313e-10
4.33998e-07
-2.85385e-10
4.34559e-07
-1.63175e-10
4.35048e-07
-4.47158e-11
4.35468e-07
7.1999e-11
4.35818e-07
1.88926e-10
4.36099e-07
3.0837e-10
4.36307e-07
4.33386e-10
4.36441e-07
5.68104e-10
4.36493e-07
7.17744e-10
4.36454e-07
8.89005e-10
4.36313e-07
1.09008e-09
4.36046e-07
1.33498e-09
4.35628e-07
1.64137e-09
4.35025e-07
2.03527e-09
4.34178e-07
2.55982e-09
4.33013e-07
3.28515e-09
4.31423e-07
4.3188e-09
4.29227e-07
5.83616e-09
4.26113e-07
8.22392e-09
4.21708e-07
1.19639e-08
4.15187e-07
1.86904e-08
3.04257e-08
4.05291e-07
-1.18718e-09
-1.13389e-08
-7.7198e-09
-4.35766e-09
-1.65132e-08
4.26463e-09
-2.66119e-08
1.21457e-08
-3.77667e-08
1.92045e-08
-4.99569e-08
2.5453e-08
-6.32203e-08
3.08914e-08
-7.7551e-08
3.55506e-08
-9.28494e-08
3.95074e-08
-1.08933e-07
4.28586e-08
-1.2558e-07
4.56879e-08
-1.42572e-07
4.80506e-08
-1.59714e-07
4.99756e-08
-1.76838e-07
5.14762e-08
-1.93804e-07
5.25601e-08
-2.10501e-07
5.32373e-08
-2.26846e-07
5.35236e-08
-2.42781e-07
5.34434e-08
-2.58259e-07
5.3028e-08
-2.73255e-07
5.2314e-08
-2.87742e-07
5.13399e-08
-3.01712e-07
5.01448e-08
-3.15153e-07
4.87661e-08
-3.28064e-07
4.72385e-08
-3.40439e-07
4.55934e-08
-3.52283e-07
4.38582e-08
-3.63591e-07
4.20561e-08
-3.7437e-07
4.02067e-08
-3.84614e-07
3.83257e-08
-3.94329e-07
3.64253e-08
-4.03511e-07
3.45146e-08
-4.12163e-07
3.26002e-08
-4.2028e-07
3.06863e-08
-4.27865e-07
2.87753e-08
-4.34911e-07
2.68681e-08
-4.41419e-07
2.49644e-08
-4.47384e-07
2.3063e-08
-4.52805e-07
2.11623e-08
-4.57675e-07
1.926e-08
-4.61993e-07
1.73539e-08
-4.65753e-07
1.54416e-08
-4.68953e-07
1.35207e-08
-4.71587e-07
1.15893e-08
-4.73655e-07
9.64595e-09
-4.7515e-07
7.69005e-09
-4.76073e-07
5.72225e-09
-4.7642e-07
3.74464e-09
-4.76189e-07
1.7602e-09
-4.7537e-07
-2.27861e-10
-4.73951e-07
-2.21874e-09
-4.71916e-07
-4.21512e-09
-4.69256e-07
-6.21851e-09
-4.65963e-07
-8.22677e-09
-4.62031e-07
-1.02371e-08
-4.57457e-07
-1.2246e-08
-4.52241e-07
-1.42497e-08
-4.46384e-07
-1.62438e-08
-4.39889e-07
-1.82237e-08
-4.32763e-07
-2.01843e-08
-4.25013e-07
-2.21201e-08
-4.16648e-07
-2.40255e-08
-4.0768e-07
-2.58948e-08
-3.98121e-07
-2.77219e-08
-3.87989e-07
-2.95011e-08
-3.77299e-07
-3.12264e-08
-3.66071e-07
-3.28922e-08
-3.54326e-07
-3.4493e-08
-3.42086e-07
-3.60238e-08
-3.29377e-07
-3.74801e-08
-3.16226e-07
-3.88585e-08
-3.02656e-07
-4.01522e-08
-2.88695e-07
-4.13545e-08
-2.74375e-07
-4.24659e-08
-2.59726e-07
-4.34845e-08
-2.44778e-07
-4.44071e-08
-2.29562e-07
-4.52317e-08
-2.1411e-07
-4.59573e-08
-1.98455e-07
-4.65832e-08
-1.82629e-07
-4.71096e-08
-1.66663e-07
-4.75369e-08
-1.50589e-07
-4.78667e-08
-1.34438e-07
-4.81004e-08
-1.18241e-07
-4.82407e-08
-1.02026e-07
-4.82901e-08
-8.58221e-08
-4.8252e-08
-6.96564e-08
-4.81298e-08
-5.35557e-08
-4.7928e-08
-3.75454e-08
-4.76506e-08
-2.16491e-08
-4.73034e-08
-5.88375e-09
-4.68933e-08
9.73457e-09
-4.64228e-08
2.51824e-08
-4.58916e-08
4.04348e-08
-4.53004e-08
5.54727e-08
-4.46491e-08
7.0273e-08
-4.39413e-08
8.48183e-08
-4.31802e-08
9.91005e-08
-4.23695e-08
1.13111e-07
-4.15152e-08
1.2684e-07
-4.06241e-08
1.40279e-07
-3.97019e-08
1.53422e-07
-3.87542e-08
1.66261e-07
-3.77857e-08
1.78792e-07
-3.68005e-08
1.9101e-07
-3.58031e-08
2.02911e-07
-3.47966e-08
2.14492e-07
-3.37855e-08
2.25752e-07
-3.27722e-08
2.36689e-07
-3.17602e-08
2.47307e-07
-3.07513e-08
2.57606e-07
-2.97485e-08
2.67588e-07
-2.87532e-08
2.77255e-07
-2.77679e-08
2.86611e-07
-2.67931e-08
2.9566e-07
-2.58309e-08
3.04407e-07
-2.48819e-08
3.12854e-07
-2.39476e-08
3.21008e-07
-2.30286e-08
3.28872e-07
-2.21257e-08
3.36453e-07
-2.12393e-08
3.43757e-07
-2.0371e-08
3.50792e-07
-1.95215e-08
3.57564e-07
-1.86913e-08
3.64077e-07
-1.78805e-08
3.70337e-07
-1.70901e-08
3.76349e-07
-1.63202e-08
3.82118e-07
-1.55711e-08
3.87651e-07
-1.48423e-08
3.92954e-07
-1.41343e-08
3.98033e-07
-1.34468e-08
4.02895e-07
-1.27798e-08
4.07546e-07
-1.21332e-08
4.11993e-07
-1.15072e-08
4.16243e-07
-1.09017e-08
4.20301e-07
-1.0316e-08
4.24174e-07
-9.75031e-09
4.27867e-07
-9.20446e-09
4.31387e-07
-8.67836e-09
4.34737e-07
-8.17185e-09
4.37925e-07
-7.68428e-09
4.40955e-07
-7.21526e-09
4.43835e-07
-6.76452e-09
4.4657e-07
-6.33141e-09
4.49166e-07
-5.91545e-09
4.51628e-07
-5.51624e-09
4.5396e-07
-5.13364e-09
4.56167e-07
-4.76733e-09
4.58254e-07
-4.41701e-09
4.60226e-07
-4.08224e-09
4.62086e-07
-3.76261e-09
4.6384e-07
-3.45752e-09
4.65491e-07
-3.16639e-09
4.67044e-07
-2.88852e-09
4.68502e-07
-2.62317e-09
4.69871e-07
-2.36976e-09
4.71155e-07
-2.12739e-09
4.72357e-07
-1.89523e-09
4.7348e-07
-1.67316e-09
4.74526e-07
-1.46075e-09
4.75495e-07
-1.25706e-09
4.76391e-07
-1.06058e-09
4.77214e-07
-8.69422e-10
4.77965e-07
-6.81194e-10
4.78646e-07
-4.93054e-10
4.79254e-07
-3.01524e-10
4.79789e-07
-1.02411e-10
4.80246e-07
1.09908e-10
4.8062e-07
3.42511e-10
4.80903e-07
6.04774e-10
4.81083e-07
9.08949e-10
4.81143e-07
1.27433e-09
4.81059e-07
1.72488e-09
4.80798e-07
2.29602e-09
4.80312e-07
3.04474e-09
4.79541e-07
4.0559e-09
4.78402e-07
5.45745e-09
4.76772e-07
7.46592e-09
4.74482e-07
1.0514e-08
4.71327e-07
1.51185e-08
4.6725e-07
2.27667e-08
3.52018e-08
4.62474e-07
-7.34689e-09
-3.99166e-09
-1.88167e-08
7.11207e-09
-3.1278e-08
1.67262e-08
-4.41253e-08
2.4993e-08
-5.72773e-08
3.23567e-08
-7.07626e-08
3.89383e-08
-8.46295e-08
4.47585e-08
-9.88993e-08
4.98202e-08
-1.13536e-07
5.4144e-08
-1.28448e-07
5.77707e-08
-1.4351e-07
6.07497e-08
-1.58588e-07
6.3128e-08
-1.73559e-07
6.49459e-08
-1.8832e-07
6.62373e-08
-2.02794e-07
6.70337e-08
-2.16925e-07
6.73678e-08
-2.30678e-07
6.72758e-08
-2.44032e-07
6.67974e-08
-2.56978e-07
6.5974e-08
-2.69513e-07
6.48484e-08
-2.81636e-07
6.34627e-08
-2.93349e-07
6.18571e-08
-3.04651e-07
6.00692e-08
-3.15547e-07
5.81333e-08
-3.26032e-07
5.60794e-08
-3.36108e-07
5.39339e-08
-3.4577e-07
5.1719e-08
-3.55017e-07
4.9453e-08
-3.63841e-07
4.71507e-08
-3.7224e-07
4.48235e-08
-3.80204e-07
4.24802e-08
-3.87732e-07
4.01268e-08
-3.94812e-07
3.77671e-08
-4.01441e-07
3.54032e-08
-4.07608e-07
3.30359e-08
-4.13309e-07
3.06646e-08
-4.18533e-07
2.82881e-08
-4.23276e-07
2.59044e-08
-4.27527e-07
2.35115e-08
-4.31281e-07
2.11068e-08
-4.34527e-07
1.86881e-08
-4.37261e-07
1.62532e-08
-4.39471e-07
1.38002e-08
-4.41153e-07
1.13278e-08
-4.42297e-07
8.83541e-09
-4.42897e-07
6.32332e-09
-4.42944e-07
3.79254e-09
-4.42427e-07
1.24457e-09
-4.41333e-07
-1.31907e-09
-4.39653e-07
-3.89791e-09
-4.37374e-07
-6.49171e-09
-4.34492e-07
-9.09906e-09
-4.30999e-07
-1.17168e-08
-4.26893e-07
-1.43408e-08
-4.22171e-07
-1.6966e-08
-4.16832e-07
-1.95867e-08
-4.10876e-07
-2.21968e-08
-4.04308e-07
-2.47897e-08
-3.97131e-07
-2.73583e-08
-3.89354e-07
-2.98952e-08
-3.80984e-07
-3.23929e-08
-3.72033e-07
-3.48435e-08
-3.62513e-07
-3.72391e-08
-3.52439e-07
-3.9572e-08
-3.41828e-07
-4.18342e-08
-3.30699e-07
-4.40183e-08
-3.19072e-07
-4.61171e-08
-3.0697e-07
-4.81235e-08
-2.94416e-07
-5.00314e-08
-2.81435e-07
-5.18357e-08
-2.68054e-07
-5.35304e-08
-2.54298e-07
-5.51071e-08
-2.40198e-07
-5.65632e-08
-2.25782e-07
-5.78968e-08
-2.11081e-07
-5.91047e-08
-1.96125e-07
-6.01841e-08
-1.80944e-07
-6.11337e-08
-1.65571e-07
-6.19526e-08
-1.50035e-07
-6.26409e-08
-1.34368e-07
-6.31994e-08
-1.186e-07
-6.36299e-08
-1.02762e-07
-6.39347e-08
-8.68807e-08
-6.41169e-08
-7.09861e-08
-6.41801e-08
-5.51049e-08
-6.41285e-08
-3.92633e-08
-6.3967e-08
-2.34864e-08
-6.37012e-08
-7.79682e-09
-6.33378e-08
7.78163e-09
-6.28826e-08
2.3226e-08
-6.23388e-08
3.85144e-08
-6.17107e-08
5.3626e-08
-6.10006e-08
6.85407e-08
-6.02112e-08
8.32415e-08
-5.93455e-08
9.77128e-08
-5.84077e-08
1.11941e-07
-5.74034e-08
1.25916e-07
-5.63388e-08
1.39627e-07
-5.52211e-08
1.53067e-07
-5.40575e-08
1.66227e-07
-5.28549e-08
1.79101e-07
-5.16195e-08
1.91682e-07
-5.03574e-08
2.03966e-07
-4.90738e-08
2.15948e-07
-4.77742e-08
2.27625e-07
-4.6463e-08
2.38994e-07
-4.51455e-08
2.50055e-07
-4.38248e-08
2.60807e-07
-4.25054e-08
2.7125e-07
-4.11897e-08
2.81387e-07
-3.98814e-08
2.9122e-07
-3.85823e-08
3.0075e-07
-3.72957e-08
3.09981e-07
-3.60225e-08
3.18916e-07
-3.47655e-08
3.2756e-07
-3.35254e-08
3.35916e-07
-3.23045e-08