/*--------------------------------*- C++ -*----------------------------------*\
  =========                 |
  \\      /  F ield         | OpenFOAM: The Open Source CFD Toolbox
   \\    /   O peration     | Website:  https://openfoam.org
    \\  /    A nd           | Version:  10
     \\/     M anipulation  |
\*---------------------------------------------------------------------------*/
FoamFile
{
    format      ascii;
    class       volScalarField::Internal;
    location    "100";
    object      tmp<kEpsilon:G>;
}
// * * * * * * * * * * * * * * * * * * * * * * * * * * * * * * * * * * * * * //

dimensions      [0 2 -3 0 0 0 0];

value           nonuniform List<scalar> 
12225
(
0
0
0
0
0
0
0
0
0
0
0
0
0
0
0
0
0
0
14.9761
9.6118
10.8668
11.2803
11.5511
11.847
12.1833
12.5539
12.9395
13.3261
13.7048
14.0688
14.4107
14.7187
14.953
15.0047
14.4406
12.3919
19.4639
14.5546
13.0597
11.6194
10.6636
9.97857
9.47232
9.10709
8.84368
8.65275
8.51306
8.40735
8.31851
8.22396
8.07449
7.76768
7.05226
5.85735
25.1605
20.7482
16.7488
13.9826
12.2099
10.9305
9.95626
9.20669
8.62114
8.15611
7.77954
7.46555
7.18957
6.92232
6.61421
6.18777
5.54038
4.80337
28.5988
26.2408
20.7518
16.9937
14.5108
12.7044
11.3253
10.2495
9.39465
8.70352
8.13382
7.65163
7.22594
6.82325
6.39834
5.90115
5.31336
4.80819
30.6337
30.4461
24.5013
20.1203
17.041
14.7581
13.0072
11.6298
10.5254
9.62454
8.8756
8.23774
7.67504
7.15254
6.63237
6.08886
5.544
5.1633
31.3412
33.1367
27.6787
23.0689
19.5575
16.8765
14.7952
13.1423
11.8059
10.7078
9.78933
9.00435
8.31394
7.68393
7.08461
6.50834
5.99071
5.665
30.7443
34.22
29.9372
25.5462
21.8332
18.8777
16.5333
14.6471
13.1067
11.831
10.7578
9.83825
9.0325
8.30873
7.64448
7.04261
6.53645
6.21883
29.0264
33.6645
31.0331
27.2152
23.6329
20.562
18.0583
16.005
14.3063
12.8857
11.6826
10.6489
9.74608
8.94561
8.23034
7.60678
7.09795
6.75945
26.4721
31.6406
30.7478
27.8196
24.6741
21.7131
19.1914
17.064
15.2728
13.7557
12.46
11.3427
10.3686
9.51298
8.76193
8.12057
7.60006
7.22639
23.3997
28.4133
29.0385
27.218
24.7173
22.1091
19.7311
17.6526
15.8582
14.3122
12.9765
11.817
10.8055
9.92131
9.15265
8.50086
7.96717
7.55681
20.2629
24.7036
26.3451
25.5471
23.7691
21.6577
19.5611
17.6395
15.9286
14.4257
13.1103
11.9591
10.9511
10.0702
9.30617
8.65735
8.11608
7.68247
17.0401
20.6058
22.7947
22.8648
21.8279
20.3029
18.6227
16.9662
15.4326
14.0491
12.816
11.7238
10.7607
9.91586
9.18112
8.55359
8.01904
7.58084
13.4701
15.9163
18.1247
18.8661
18.5559
17.7065
16.5809
15.327
14.0926
12.9326
11.8697
10.9098
10.0518
9.29168
8.62472
8.04684
7.54606
7.12476
9.60509
11.0397
12.7662
13.7429
13.973
13.7388
13.1856
12.4338
11.6081
10.7785
9.98293
9.24094
8.56182
7.94899
7.40225
6.91874
6.49371
6.12646
5.70381
6.38256
7.43426
8.2452
8.65705
8.77371
8.65895
8.36587
7.96521
7.51317
7.04612
6.58695
6.14989
5.74307
5.37011
5.03082
4.72785
4.4588
2.25722
2.51257
3.01598
3.48899
3.7985
3.97518
4.04164
4.00927
3.90235
3.74776
3.56636
3.37279
3.17732
2.9868
2.80521
2.63377
2.47811
2.33503
0.188179
0.284285
0.510553
0.751035
0.922505
1.03812
1.1131
1.14912
1.1515
1.1299
1.09281
1.04612
0.994047
0.939651
0.884924
0.830892
0.780277
0.731107
0.809257
0.951507
1.24417
1.54943
1.76799
1.90963
1.99223
2.02128
2.00611
1.95993
1.89407
1.81657
1.73314
1.64795
1.56397
1.4835
1.40522
1.33108
4.44112
4.96447
5.79682
6.50878
6.92733
7.11096
7.1146
6.97348
6.73264
6.43417
6.10821
5.7744
5.44554
5.12967
4.83147
4.55369
4.29366
4.05778
9.57271
10.9607
12.5727
13.5218
13.7716
13.5751
13.0862
12.4134
11.6623
10.8986
10.1597
9.46413
8.82053
8.23136
7.69556
7.21052
6.77068
6.37978
15.2702
18.0805
20.263
20.7304
20.128
19.0124
17.6917
16.3036
14.9746
13.7499
12.643
11.6531
10.7726
9.9909
9.29707
8.68064
8.1322
7.65028
20.9083
25.3446
26.8866
25.8808
23.9598
21.7981
19.6701
17.747
16.047
14.5673
13.2858
12.1749
11.2099
10.3691
9.63399
8.98852
8.42092
7.92595
25.9865
31.0114
30.5862
27.6539
24.5883
21.6971
19.2203
17.1167
15.3483
13.858
12.5948
11.5189
10.5978
9.80475
9.11814
8.52002
7.99782
7.54494
29.5658
33.6778
30.5851
26.3066
22.6035
19.6163
17.1915
15.2253
13.6179
12.2897
11.1814
10.2491
9.45858
8.78309
8.20183
7.69788
7.25955
6.8812
30.7516
32.4996
27.4911
22.674
19.1777
16.5451
14.4931
12.8664
11.5556
10.4848
9.59959
8.86041
8.23743
7.70792
7.25442
6.86276
6.52273
6.23071
29.0638
27.5181
22.2868
18.1322
15.3678
13.3644
11.8311
10.6258
9.66413
8.88569
8.24747
7.71843
7.2755
6.90122
6.58243
6.3085
6.07136
5.86922
24.2488
19.4187
16.3383
13.811
12.0399
10.7906
9.83667
9.09213
8.50774
8.0433
7.6693
7.36482
7.11448
6.90669
6.73295
6.58647
6.46202
6.36024
18.4751
11.2775
11.4358
10.9983
10.5369
10.2438
10.0551
9.94916
9.90915
9.91509
9.95186
10.0094
10.0806
10.1603
10.2451
10.3323
10.4209
10.5244
0
0
0
0
0
0
0
0
0
0
0
0
0
0
0
0
0
0
0
0
0
0
0
0
0
0
0
0
0
0
0
0
0
0
0
0
0
0
0
0
0
0
0
0
0
0
0
0
0
0
0
0
0
0
0
0
0
0
0
0
0
0
0
0
0
0
0
0
0
0
0
0
0
0
0
0
0
0
0
0
0
0
0
0
0
0
0
0
0
0
0
0
0
0
0
0
0
0
0
0
0
0
0
0
0
0
0
0
0
0
0
0
0
0
0
0
0
0
0
0
0
0
0
0
0
0
0
0
0
0
0
0
0
0
0
0
0
0
0
0
0
0
0
0
0
0
0
0
0
0
0
0
0
0
0
0
0
0
0
0
0
0
0
0
0
0
0
0
0
0
0
0
0
0
0
0
0
0
0
0
0
0
0
0
0
0
0
0
0
0
0
0
0
0
0
0
0
0
0
0.000276496
0.00236898
0.010313
0.0263414
0.0504269
0.0810995
0.115892
0.152698
0.190019
0.227053
0.263434
0.298868
0.332459
0.362893
0.388813
0.409135
0.423228
0.430722
0.431621
0.426245
0.415183
0.399264
0.379414
0.356564
0.331607
0.305361
0.278539
0.251739
0.225454
0.200073
0.175885
0.153102
0.131875
0.112307
0.0944627
0.0783803
0.0640815
0.0515753
0.0408647
0.0319415
0.0247901
0.0193783
0.0156615
0.0135756
0.0130437
0.01397
0.0162436
0.0197336
0.0243131
0.0298108
0.0365868
0.0445787
0.0538474
0.0643946
0.0761933
0.0891963
0.103324
0.118481
0.13455
0.151408
0.168898
0.186863
0.205121
0.223499
0.241803
0.259862
0.277561
0.294521
0.310581
0.325688
0.339879
0.352761
0.364331
0.374507
0.383207
0.390393
0.396049
0.400202
0.402882
0.404141
0.404056
0.402731
0.40027
0.396768
0.392353
0.387135
0.38127
0.37488
0.368189
0.361364
0.354529
0.347773
0.341262
0.334852
0.328284
0.321693
0.315239
0.309005
0.303084
0.297546
0.292437
0.287783
0.283602
0.279908
0.276721
0.274052
0.271914
0.270305
0.269213
0.268617
0.268506
0.26886
0.269662
0.270889
0.272521
0.274536
0.276934
0.279722
0.282868
0.286275
0.289948
0.293877
0.298058
0.302486
0.307153
0.312057
0.31718
0.322497
0.327992
0.333644
0.339427
0.345317
0.351323
0.357443
0.363676
0.37001
0.376434
0.382938
0.389521
0.396164
0.40285
0.409569
0.416316
0.423092
0.429897
0.436726
0.443572
0.450428
0.457289
0.464154
0.471025
0.47791
0.48482
0.491782
0.498793
0.50584
0.512904
0.519969
0.527025
0.534065
0.54109
0.548105
0.555111
0.562119
0.569135
0.57618
0.58327
0.590459
0.597647
0.605727
0.613382
0.621597
0.631749
0.642597
0.655305
0.671982
0.703987
0.735599
0.856639
0
0.0125285
0.0488456
0.0810816
0.112089
0.146382
0.186365
0.230367
0.274496
0.315009
0.349535
0.377017
0.397045
0.409881
0.416234
0.416955
0.412735
0.404263
0.392301
0.377653
0.361113
0.343425
0.325246
0.307134
0.289528
0.272757
0.257051
0.242556
0.229344
0.217445
0.206845
0.197514
0.189401
0.182457
0.17663
0.171882
0.168178
0.165499
0.163835
0.16319
0.163577
0.165021
0.167555
0.171222
0.17608
0.182208
0.189721
0.198779
0.209588
0.222314
0.237468
0.254588
0.273663
0.294573
0.317233
0.341547
0.367414
0.394689
0.423214
0.452788
0.4832
0.514186
0.545485
0.57679
0.607812
0.63822
0.667719
0.695937
0.722549
0.747558
0.770362
0.790855
0.808808
0.82406
0.836522
0.846066
0.852638
0.856226
0.856871
0.85464
0.849637
0.842009
0.831928
0.81959
0.805183
0.788941
0.771079
0.751859
0.731537
0.710454
0.68873
0.666314
0.643168
0.619445
0.595784
0.572807
0.550497
0.52866
0.507324
0.486575
0.466497
0.447163
0.42861
0.410878
0.393987
0.37797
0.362837
0.348605
0.335253
0.322769
0.311122
0.300295
0.290247
0.280951
0.272364
0.264456
0.257189
0.250545
0.244501
0.239026
0.234061
0.229567
0.225503
0.221853
0.2186
0.215728
0.213232
0.211085
0.209255
0.20772
0.206456
0.205432
0.204621
0.204029
0.203645
0.203458
0.203453
0.203622
0.203955
0.204448
0.205083
0.205845
0.206723
0.20771
0.208804
0.210001
0.211295
0.212679
0.214147
0.215694
0.217319
0.21902
0.220792
0.222624
0.224461
0.226324
0.228237
0.230214
0.232256
0.234364
0.236534
0.238765
0.24106
0.243414
0.245831
0.248313
0.250868
0.253508
0.256255
0.259119
0.262273
0.265644
0.269438
0.274032
0.280045
0.287291
0.297783
0.317553
0.341243
0.411561
0
0.0574356
0.136069
0.191632
0.228004
0.255502
0.28253
0.310997
0.339349
0.364937
0.385536
0.400036
0.408377
0.411178
0.409369
0.404071
0.396219
0.386704
0.376222
0.365323
0.354427
0.343859
0.333859
0.324603
0.316205
0.308739
0.302237
0.296709
0.292139
0.288502
0.285764
0.28389
0.282845
0.282601
0.283136
0.284441
0.28652
0.289391
0.293084
0.297649
0.303151
0.309676
0.317331
0.326243
0.336563
0.348458
0.362103
0.377667
0.395262
0.414949
0.436752
0.460664
0.486735
0.514938
0.54521
0.577453
0.611536
0.647288
0.684505
0.722939
0.762313
0.802303
0.842562
0.882708
0.92235
0.961076
0.998475
1.03412
1.06756
1.09868
1.1269
1.15192
1.17355
1.19149
1.20564
1.21585
1.22205
1.22422
1.2224
1.21668
1.2072
1.19415
1.17776
1.15827
1.13597
1.11116
1.08414
1.05525
1.02468
0.992612
0.959205
0.924771
0.889756
0.854513
0.819305
0.784461
0.750213
0.716633
0.683825
0.651913
0.621003
0.59118
0.562503
0.535014
0.508751
0.483742
0.460006
0.437541
0.416335
0.396355
0.37757
0.359944
0.343438
0.328
0.313583
0.300133
0.287607
0.275963
0.265162
0.255155
0.245875
0.23727
0.22929
0.221905
0.215085
0.208803
0.20303
0.197736
0.192887
0.188453
0.184403
0.180706
0.177334
0.174277
0.171512
0.169015
0.166768
0.164758
0.162975
0.161407
0.16003
0.158829
0.157791
0.15691
0.156178
0.155587
0.155129
0.154794
0.154576
0.15447
0.154471
0.154573
0.154772
0.155059
0.155418
0.155841
0.15633
0.156891
0.157525
0.158234
0.159018
0.159875
0.160803
0.161804
0.162885
0.16405
0.165313
0.166687
0.168201
0.169883
0.171832
0.174106
0.176882
0.180441
0.185285
0.191998
0.201906
0.218953
0.241472
0.287716
0
0.115653
0.224708
0.299208
0.338302
0.355852
0.365832
0.373545
0.380456
0.386336
0.390348
0.391808
0.390533
0.38682
0.381307
0.374573
0.367262
0.359872
0.352802
0.346349
0.340718
0.33605
0.332435
0.329925
0.328538
0.328271
0.329097
0.330977
0.333856
0.337673
0.342363
0.347864
0.354115
0.361071
0.368695
0.376967
0.385885
0.395466
0.405745
0.41678
0.428651
0.441463
0.455349
0.470461
0.486973
0.505068
0.524919
0.546675
0.570426
0.596234
0.624159
0.654285
0.686678
0.721346
0.758246
0.797286
0.838328
0.881181
0.925611
0.971335
1.01802
1.0653
1.11276
1.15995
1.20641
1.25165
1.29519
1.33653
1.37516
1.4108
1.44298
1.47118
1.49529
1.51489
1.52986
1.54006
1.5454
1.54586
1.54148
1.53238
1.51872
1.50073
1.47869
1.45291
1.42372
1.39147
1.35643
1.31877
1.27875
1.23688
1.19366
1.14952
1.10482
1.05995
1.01521
0.97088
0.927196
0.884316
0.842401
0.801597
0.762038
0.723814
0.687011
0.651673
0.617861
0.585599
0.554917
0.525801
0.498245
0.472204
0.447652
0.424535
0.402815
0.382427
0.363318
0.345421
0.328687
0.313061
0.29849
0.284909
0.272251
0.260446
0.249444
0.2392
0.229677
0.220834
0.212633
0.20503
0.19799
0.19147
0.185437
0.179851
0.174683
0.169905
0.165494
0.161421
0.157665
0.154209
0.151036
0.148136
0.14548
0.143048
0.140821
0.138789
0.136941
0.135265
0.133752
0.132388
0.131167
0.130081
0.129124
0.128289
0.127569
0.126955
0.126439
0.126014
0.125675
0.125418
0.125246
0.125156
0.12515
0.125227
0.125387
0.125632
0.125968
0.126401
0.126942
0.127611
0.128439
0.129465
0.130767
0.132441
0.134659
0.137671
0.141966
0.148189
0.157459
0.172352
0.192383
0.226101
0
0.166069
0.282615
0.366924
0.407597
0.418221
0.415612
0.407461
0.397515
0.387534
0.378043
0.36901
0.360333
0.35201
0.344129
0.337018
0.330786
0.325672
0.321829
0.31938
0.318405
0.318954
0.321042
0.324662
0.32978
0.336342
0.344274
0.353486
0.363878
0.375339
0.387758
0.401028
0.415051
0.429737
0.445025
0.460864
0.47723
0.494123
0.511569
0.529623
0.548367
0.567913
0.588398
0.609977
0.632826
0.657125
0.683057
0.710776
0.740424
0.772108
0.805934
0.841998
0.88037
0.921074
0.96408
1.0093
1.0566
1.10578
1.15658
1.20869
1.26174
1.31531
1.36895
1.42214
1.47436
1.52507
1.57371
1.61975
1.66259
1.70181
1.73706
1.76762
1.79348
1.81409
1.82934
1.83908
1.84322
1.84172
1.83466
1.82215
1.80441
1.7817
1.75431
1.72257
1.68676
1.64713
1.60399
1.55781
1.50916
1.45862
1.40672
1.3539
1.30057
1.24713
1.19391
1.1412
1.08922
1.03819
0.988303
0.939722
0.892594
0.847027
0.803108
0.760907
0.720483
0.681877
0.645107
0.610169
0.577043
0.545694
0.516079
0.48815
0.46185
0.437118
0.413885
0.392086
0.371658
0.352542
0.334668
0.317965
0.302347
0.287747
0.274108
0.261379
0.249513
0.23846
0.228169
0.218591
0.20968
0.201392
0.193682
0.186512
0.179846
0.173652
0.167897
0.162549
0.157582
0.152975
0.148705
0.144753
0.141092
0.137698
0.134552
0.131641
0.128951
0.126465
0.12417
0.122055
0.120107
0.118318
0.116678
0.115179
0.113812
0.112568
0.11144
0.110422
0.109506
0.108689
0.107967
0.107339
0.106804
0.106361
0.106012
0.105759
0.105606
0.105562
0.10564
0.10586
0.106254
0.106866
0.107769
0.109068
0.110929
0.113591
0.117475
0.123224
0.13164
0.144684
0.161769
0.187511
0
0.200012
0.300664
0.383971
0.423974
0.431482
0.422628
0.406119
0.386817
0.367676
0.350175
0.334872
0.321754
0.310809
0.302003
0.295219
0.290472
0.287752
0.287068
0.288433
0.291851
0.297314
0.304794
0.314245
0.325599
0.338762
0.353622
0.370046
0.387891
0.407002
0.42722
0.4484
0.470401
0.493102
0.516399
0.540196
0.564435
0.589087
0.614155
0.639681
0.66574
0.692436
0.719904
0.7483
0.777801
0.80859
0.840858
0.874778
0.910531
0.948256
0.988083
1.03012
1.07444
1.12108
1.17001
1.22115
1.27437
1.32945
1.38612
1.44406
1.50285
1.56205
1.62115
1.67959
1.73681
1.79219
1.84513
1.89505
1.94131
1.98336
2.02088
2.05312
2.07998
2.10099
2.11594
2.12469
2.12716
2.12333
2.11327
2.09713
2.07509
2.04741
2.01431
1.97608
1.9331
1.88587
1.83493
1.78084
1.72419
1.66559
1.6056
1.54469
1.48331
1.42185
1.36071
1.30017
1.24051
1.18195
1.12472
1.06899
1.01492
0.962623
0.912193
0.863721
0.817261
0.772867
0.730544
0.690298
0.652095
0.615908
0.58168
0.549366
0.518893
0.490202
0.463211
0.437856
0.414063
0.391768
0.370888
0.351341
0.333036
0.315902
0.299873
0.284896
0.270908
0.257857
0.245681
0.234326
0.223736
0.213863
0.204656
0.196076
0.188079
0.180629
0.173685
0.167215
0.161188
0.155578
0.150357
0.145502
0.140984
0.136776
0.132857
0.129209
0.125814
0.122655
0.119717
0.11699
0.114456
0.112103
0.10992
0.107898
0.106026
0.104295
0.102696
0.101222
0.099867
0.0986239
0.0974886
0.0964587
0.0955322
0.0947084
0.0939878
0.0933735
0.0928704
0.0924874
0.0922381
0.092144
0.0922375
0.0925646
0.093197
0.0942384
0.0958467
0.0982488
0.101806
0.107081
0.114685
0.125985
0.140357
0.160485
0
0.218479
0.284919
0.357078
0.393542
0.399923
0.389704
0.371183
0.349325
0.327452
0.307394
0.290062
0.275828
0.26467
0.256493
0.25119
0.248638
0.248748
0.251464
0.256748
0.264569
0.27489
0.287664
0.302819
0.320264
0.339881
0.361527
0.38504
0.410242
0.436938
0.464947
0.494084
0.524156
0.554987
0.586431
0.618372
0.650722
0.683429
0.71648
0.749893
0.783723
0.818058
0.853019
0.888751
0.925422
0.963213
1.00232
1.04293
1.08524
1.12942
1.1756
1.22389
1.27438
1.3271
1.38202
1.43906
1.49808
1.55885
1.62111
1.68449
1.74857
1.81287
1.87684
1.93988
2.00137
2.06067
2.11712
2.17008
2.21891
2.26296
2.30186
2.33492
2.36193
2.38249
2.39635
2.40339
2.40349
2.39659
2.38278
2.36215
2.33484
2.30115
2.26145
2.21623
2.16602
2.11139
2.05293
1.99121
1.92687
1.86055
1.79283
1.7242
1.65513
1.58607
1.5174
1.44946
1.38255
1.31693
1.25281
1.1904
1.12985
1.07128
1.0148
0.960505
0.908457
0.858698
0.811243
0.766081
0.723189
0.682524
0.644037
0.607665
0.573341
0.540986
0.510524
0.481881
0.454982
0.429748
0.406088
0.383911
0.363122
0.343643
0.325406
0.308348
0.292403
0.277506
0.263591
0.250597
0.238464
0.227135
0.216559
0.206688
0.197476
0.188879
0.180856
0.173368
0.166382
0.159868
0.153796
0.148134
0.142852
0.137922
0.13332
0.129025
0.125018
0.121277
0.117786
0.11453
0.111492
0.108659
0.106019
0.103559
0.101268
0.0991347
0.0971501
0.0953056
0.0935939
0.092008
0.0905428
0.0891942
0.0879596
0.0868377
0.0858288
0.0849364
0.0841655
0.0835253
0.0830299
0.0827014
0.0825726
0.0826899
0.0831222
0.08397
0.0853795
0.0875609
0.0908214
0.0956313
0.102434
0.112211
0.124229
0.140193
0
0.227029
0.247837
0.301616
0.331604
0.337054
0.328218
0.311735
0.291922
0.271864
0.253502
0.237861
0.225378
0.216225
0.21038
0.207748
0.208227
0.211742
0.218236
0.227674
0.240021
0.255241
0.273279
0.294059
0.31748
0.343408
0.371687
0.402135
0.434543
0.468715
0.504422
0.541434
0.579543
0.618544
0.658258
0.698538
0.73927
0.780375
0.821809
0.863565
0.905672
0.948197
0.991236
1.03492
1.07939
1.12482
1.1714
1.21933
1.26881
1.32001
1.37304
1.42803
1.48504
1.54411
1.6052
1.66822
1.73303
1.79939
1.86701
1.93553
2.00449
2.07338
2.14163
2.2086
2.27363
2.33603
2.39514
2.45025
2.50068
2.54576
2.58504
2.61793
2.64408
2.66311
2.67477
2.6789
2.67535
2.66404
2.64507
2.61862
2.58501
2.54466
2.49804
2.44568
2.38817
2.32611
2.26013
2.19085
2.11892
2.04501
1.96974
1.8936
1.8171
1.74069
1.66481
1.5898
1.51599
1.44364
1.37302
1.30429
1.23764
1.17319
1.11105
1.05131
0.99405
0.939292
0.887058
0.837325
0.790075
0.745251
0.702808
0.66267
0.624768
0.589013
0.555331
0.523639
0.493858
0.465895
0.439656
0.415033
0.391938
0.370283
0.35
0.331011
0.31325
0.29664
0.281114
0.266601
0.25304
0.240366
0.228526
0.217463
0.207131
0.197479
0.188464
0.180043
0.172181
0.164842
0.157993
0.151597
0.145622
0.140038
0.13482
0.129943
0.125386
0.121125
0.117143
0.113421
0.109942
0.106691
0.103652
0.100813
0.0981601
0.0956832
0.0933709
0.0912132
0.0892021
0.0873297
0.0855901
0.0839787
0.0824921
0.0811283
0.0798873
0.078772
0.0777875
0.0769431
0.0762533
0.0757409
0.075438
0.0753902
0.0756636
0.0763524
0.0775903
0.0795661
0.0825384
0.0868889
0.0929312
0.101364
0.111352
0.124249
0
0.231171
0.201861
0.233743
0.255059
0.259043
0.252228
0.239468
0.224197
0.208806
0.194892
0.183427
0.174918
0.169576
0.167458
0.168559
0.172857
0.180336
0.190988
0.204812
0.221805
0.241949
0.265205
0.291507
0.320757
0.352828
0.387557
0.424757
0.464228
0.505732
0.549018
0.593851
0.63999
0.687216
0.735332
0.784166
0.833577
0.883454
0.933725
0.984349
1.03533
1.08668
1.13849
1.19085
1.24386
1.2977
1.3525
1.40848
1.46582
1.52465
1.5851
1.64725
1.71118
1.77688
1.84432
1.91339
1.98393
2.0557
2.1284
2.20165
2.27497
2.34783
2.41962
2.48969
2.55734
2.62189
2.6826
2.73874
2.78958
2.83443
2.87272
2.90395
2.9277
2.94359
2.95141
2.95095
2.94217
2.92509
2.89991
2.86691
2.82647
2.77904
2.72515
2.66538
2.60034
2.53069
2.45709
2.3802
2.30069
2.21927
2.13654
2.05305
1.9693
1.88579
1.80295
1.72116
1.64075
1.56203
1.48523
1.41054
1.33814
1.26817
1.20073
1.13591
1.07379
1.01438
0.957701
0.90373
0.852431
0.803758
0.757645
0.714023
0.672804
0.633906
0.597244
0.562734
0.530287
0.4998
0.471168
0.444283
0.41905
0.395385
0.373206
0.352433
0.332989
0.314796
0.297778
0.281862
0.26698
0.253065
0.240056
0.227896
0.21653
0.205907
0.195979
0.186703
0.178037
0.169944
0.162383
0.155318
0.148712
0.142535
0.136758
0.131355
0.126301
0.121573
0.11715
0.113011
0.109139
0.105515
0.102125
0.0989526
0.0959837
0.0932063
0.0906086
0.0881802
0.0859125
0.083796
0.0818241
0.0799911
0.0782929
0.076727
0.0752933
0.0739942
0.0728348
0.0718243
0.070977
0.0703147
0.0698687
0.0696833
0.069821
0.070369
0.0714476
0.0732221
0.0759074
0.0798073
0.0851377
0.0923955
0.1007
0.11123
0
0.23466
0.156352
0.166137
0.17783
0.179784
0.175013
0.166509
0.156599
0.147028
0.138967
0.133132
0.129929
0.129575
0.132186
0.137834
0.146577
0.158477
0.173596
0.191992
0.213711
0.238776
0.267185
0.298898
0.333843
0.371903
0.412932
0.456774
0.503182
0.551919
0.602744
0.655405
0.709663
0.765286
0.822058
0.879785
0.938296
0.997448
1.05713
1.11727
1.17781
1.23874
1.30009
1.3619
1.42426
1.48726
1.55105
1.6158
1.68164
1.74868
1.81702
1.88672
1.95781
2.03029
2.10408
2.17908
2.25509
2.33187
2.40911
2.48641
2.56327
2.63915
2.71341
2.78539
2.85434
2.91952
2.98024
3.03573
3.08522
3.12802
3.1635
3.19117
3.21063
3.22161
3.22401
3.21763
3.20256
3.17884
3.14669
3.10646
3.05859
3.00357
2.94199
2.87445
2.80162
2.7242
2.64286
2.55831
2.47125
2.38237
2.29231
2.20164
2.11087
2.02051
1.931
1.84276
1.75611
1.67136
1.58875
1.50849
1.43072
1.35561
1.28325
1.21374
1.14713
1.08344
1.02267
0.964797
0.909782
0.857576
0.8081
0.761282
0.717025
0.675247
0.635858
0.59877
0.563878
0.531077
0.500249
0.47129
0.4441
0.418592
0.394675
0.372266
0.351279
0.331633
0.313247
0.296045
0.279951
0.264898
0.25082
0.237655
0.225343
0.213833
0.203072
0.193015
0.183617
0.174836
0.166628
0.158953
0.151776
0.145061
0.138779
0.132901
0.127401
0.122253
0.117435
0.112924
0.108701
0.104747
0.101044
0.0975767
0.0943295
0.091289
0.0884425
0.0857786
0.0832872
0.0809589
0.0787872
0.0767647
0.0748868
0.0731503
0.0715546
0.0701015
0.0687958
0.0676462
0.0666668
0.0658786
0.0653116
0.0650074
0.0650242
0.0654408
0.0663639
0.0679362
0.0703343
0.0737963
0.0784651
0.0846999
0.0916098
0.100305
0
0.241319
0.11873
0.108628
0.111113
0.110641
0.107344
0.102739
0.0981857
0.0946753
0.0928827
0.0932309
0.095967
0.101256
0.109217
0.119963
0.133616
0.150304
0.170162
0.193316
0.219876
0.249926
0.283504
0.32063
0.361264
0.40534
0.452711
0.503189
0.556574
0.612644
0.671172
0.731913
0.794623
0.859055
0.924972
0.99215
1.06038
1.12949
1.1993
1.2697
1.34058
1.41187
1.48353
1.55556
1.62797
1.7008
1.77417
1.84818
1.92293
1.99848
2.07487
2.15214
2.23028
2.30926
2.38899
2.46933
2.55005
2.63089
2.71154
2.7916
2.87059
2.94791
3.02294
3.095
3.16333
3.22719
3.28582
3.3385
3.38449
3.42312
3.45382
3.47613
3.48975
3.49443
3.49017
3.47673
3.45431
3.42299
3.38304
3.33486
3.27893
3.21581
3.14611
3.0705
2.98967
2.90434
2.81523
2.72305
2.62853
2.53236
2.43519
2.3376
2.24012
2.14327
2.04749
1.95319
1.86073
1.7704
1.68243
1.59702
1.51435
1.43455
1.35772
1.28395
1.21327
1.1457
1.08124
1.01985
0.961496
0.906105
0.853606
0.803907
0.756921
0.712553
0.670715
0.631306
0.594216
0.559326
0.52652
0.495691
0.466738
0.439567
0.414085
0.390199
0.36782
0.346863
0.327241
0.308876
0.29169
0.275609
0.260565
0.246492
0.233328
0.221016
0.209506
0.198746
0.188689
0.179289
0.170499
0.162278
0.154587
0.14739
0.140657
0.134355
0.128457
0.122935
0.117766
0.112925
0.108392
0.104146
0.100168
0.0964416
0.0929505
0.0896799
0.0866164
0.0837476
0.081063
0.0785523
0.0762077
0.0740219
0.0719901
0.0701082
0.0683749
0.0667914
0.0653618
0.0640946
0.0630028
0.0621063
0.0614331
0.0610219
0.0609261
0.0612162
0.0619857
0.0633556
0.065469
0.0685097
0.0725677
0.0779109
0.0836703
0.0909204
0
0.250383
0.091886
0.0658561
0.0608815
0.0585517
0.0567722
0.0558292
0.0562647
0.0585114
0.0628366
0.0693858
0.0782396
0.0894675
0.103146
0.119398
0.138375
0.160255
0.185233
0.213508
0.24526
0.280637
0.319762
0.362678
0.409383
0.459806
0.513849
0.57137
0.632202
0.696162
0.763023
0.832536
0.90444
0.978463
1.05433
1.13179
1.21057
1.29045
1.37119
1.45261
1.53454
1.61681
1.69933
1.78203
1.86483
1.94775
2.03082
2.1141
2.19759
2.28131
2.36526
2.44943
2.53378
2.61825
2.70271
2.78701
2.87092
2.95416
3.0364
3.11723
3.19616
3.27264
3.34606
3.41573
3.48095
3.54099
3.59516
3.64277
3.68314
3.71562
3.73972
3.75491
3.76115
3.75803
3.74575
3.72403
3.69318
3.65332
3.60475
3.54795
3.48343
3.41179
3.33369
3.24982
3.16091
3.06769
2.97091
2.8713
2.76957
2.66644
2.56256
2.45848
2.35476
2.2519
2.15038
2.05058
1.95286
1.85749
1.76473
1.67474
1.58771
1.50376
1.42299
1.34547
1.27122
1.20026
1.13256
1.0681
1.00681
0.948641
0.893498
0.841284
0.791912
0.745283
0.701305
0.659864
0.620846
0.584123
0.549581
0.51711
0.48661
0.457978
0.431119
0.405932
0.382328
0.360214
0.339504
0.320113
0.301962
0.284974
0.269077
0.254202
0.240285
0.227267
0.215095
0.203716
0.193078
0.183131
0.173828
0.165126
0.156983
0.149364
0.142233
0.13556
0.129313
0.123465
0.117989
0.11286
0.108056
0.103556
0.0993402
0.0953897
0.0916876
0.0882185
0.084968
0.0819233
0.0790726
0.0764056
0.0739135
0.0715887
0.0694252
0.0674192
0.0655688
0.0638743
0.0623394
0.0609714
0.0597826
0.0587912
0.058023
0.0575135
0.0573105
0.0574767
0.0580926
0.0592598
0.0610935
0.0637345
0.0672347
0.0718013
0.0766102
0.0827058
0
0.261552
0.076865
0.0402232
0.0306953
0.0278131
0.0280107
0.0307198
0.035926
0.0436554
0.053886
0.0665575
0.0816049
0.099002
0.118783
0.141058
0.165992
0.193798
0.224741
0.259046
0.296944
0.338633
0.384252
0.433909
0.487647
0.54546
0.607288
0.673043
0.742588
0.815719
0.892199
0.971753
1.05408
1.13888
1.22582
1.31458
1.40483
1.49628
1.58861
1.68156
1.77488
1.86832
1.96172
2.0549
2.14773
2.24018
2.33221
2.42378
2.51487
2.60541
2.69538
2.78473
2.87337
2.96122
3.04814
3.13396
3.21846
3.30137
3.38237
3.46108
3.53707
3.6098
3.67869
3.74312
3.80242
3.85595
3.90305
3.94312
3.97552
3.99975
4.01522
4.02163
4.01878
4.00637
3.98473
3.95355
3.91325
3.86397
3.8061
3.74013
3.66663
3.58623
3.49962
3.40753
3.31069
3.20984
3.10574
2.99911
2.89069
2.78116
2.67116
2.56125
2.45196
2.34381
2.23725
2.13267
2.03041
1.93073
1.83386
1.73999
1.64927
1.56183
1.47775
1.39708
1.31985
1.24604
1.17565
1.10862
1.04489
0.984402
0.927047
0.872734
0.821367
0.772849
0.727076
0.683931
0.643288
0.60502
0.569013
0.535158
0.503349
0.473482
0.445454
0.419165
0.394519
0.371422
0.349784
0.32952
0.310546
0.292784
0.276158
0.260598
0.246037
0.232418
0.219681
0.207773
0.196638
0.186223
0.176481
0.167367
0.158839
0.150858
0.143389
0.136399
0.129855
0.123728
0.117991
0.112619
0.107586
0.102871
0.0984527
0.0943126
0.0904325
0.0867961
0.0833883
0.0801954
0.0772053
0.074407
0.071791
0.0693492
0.0670753
0.0649648
0.0630151
0.0612266
0.0596018
0.0581473
0.056874
0.0557984
0.0549439
0.0543423
0.0540362
0.0540803
0.0545434
0.0555099
0.0570718
0.0593368
0.0623304
0.0662198
0.0702426
0.0754075
0
0.272602
0.0722673
0.0311418
0.0210632
0.0198912
0.0233094
0.0302856
0.040509
0.0538206
0.070075
0.0891214
0.110832
0.135131
0.161996
0.191521
0.223852
0.259206
0.29782
0.339969
0.385915
0.4359
0.490115
0.5487
0.611725
0.679228
0.751189
0.827494
0.907973
0.992389
1.08046
1.17186
1.26624
1.36321
1.46238
1.56335
1.66572
1.76909
1.87307
1.97732
2.08149
2.18528
2.28844
2.39071
2.49195
2.59204
2.69086
2.78834
2.88439
2.97893
3.07189
3.16321
3.25281
3.34058
3.4264
3.51012
3.59154
3.67043
3.74652
3.81945
3.88885
3.95425
4.01514
4.07101
4.12128
4.16534
4.20261
4.23256
4.25459
4.26818
4.2729
4.26858
4.25488
4.23168
4.19942
4.15773
4.10717
4.04791
3.98038
3.9051
3.82265
3.73368
3.63885
3.53891
3.43457
3.3266
3.21575
3.10277
2.98837
2.87323
2.75793
2.64302
2.52903
2.41646
2.30575
2.19726
2.09133
1.98821
1.88809
1.79116
1.69755
1.60739
1.52073
1.43762
1.35806
1.28206
1.20957
1.14056
1.07494
1.01264
0.953563
0.897612
0.844687
0.79469
0.747506
0.703015
0.661084
0.621591
0.58442
0.549463
0.516609
0.485753
0.456787
0.429612
0.404126
0.380237
0.357849
0.336877
0.317236
0.298845
0.281626
0.265509
0.250425
0.236316
0.22312
0.21078
0.199239
0.188442
0.178342
0.168891
0.160048
0.151772
0.144027
0.136778
0.129992
0.123639
0.11769
0.112118
0.106899
0.102009
0.0974268
0.0931327
0.0891082
0.085336
0.0818005
0.0784875
0.0753843
0.0724792
0.0697624
0.0672252
0.0648609
0.0626645
0.0606329
0.0587655
0.0570647
0.055536
0.0541888
0.053038
0.0521042
0.0514156
0.0510096
0.0509335
0.0512455
0.0520153
0.0533162
0.0552305
0.0577667
0.0610656
0.0644341
0.0688402
0
0.280476
0.0770507
0.037383
0.031164
0.0348075
0.0437331
0.0567623
0.0735444
0.0939833
0.117936
0.145263
0.175802
0.209456
0.246209
0.286104
0.329262
0.375872
0.426172
0.480422
0.538872
0.60173
0.669169
0.741297
0.818213
0.899885
0.986212
1.07701
1.17203
1.27095
1.37341
1.479
1.58727
1.69776
1.80998
1.92344
2.03765
2.15214
2.26645
2.38016
2.49288
2.60424
2.71394
2.82171
2.92736
3.03072
3.13168
3.23012
3.32598
3.41919
3.50969
3.59745
3.68241
3.7645
3.84363
3.91971
3.9926
4.06216
4.12815
4.1903
4.2483
4.30182
4.35034
4.39341
4.43038
4.46096
4.48463
4.50105
4.50952
4.51002
4.502
4.48513
4.45923
4.42412
4.3804
4.32751
4.26624
4.19676
4.11952
4.03505
3.94396
3.84691
3.74463
3.63777
3.52701
3.41311
3.29679
3.17874
3.05967
2.9402
2.8209
2.70228
2.58485
2.46907
2.35536
2.24408
2.13551
2.02989
1.92743
1.8283
1.73263
1.64051
1.55202
1.46717
1.38597
1.30841
1.23444
1.16401
1.09705
1.03345
0.973135
0.915998
0.861944
0.810865
0.762644
0.717154
0.674265
0.633855
0.595811
0.560023
0.526381
0.494774
0.465097
0.437245
0.411117
0.386618
0.363655
0.342138
0.321982
0.303104
0.285427
0.268878
0.253391
0.238902
0.225351
0.212677
0.20082
0.189727
0.179349
0.169637
0.16055
0.152046
0.144088
0.136638
0.129665
0.123137
0.117024
0.111299
0.105936
0.100912
0.0962037
0.0917914
0.0876558
0.0837793
0.0801457
0.0767403
0.0735498
0.0705623
0.0677673
0.0651559
0.0627208
0.0604564
0.0583592
0.0564281
0.0546644
0.0530728
0.0516616
0.0504436
0.0494369
0.0486661
0.0481635
0.0479697
0.0481337
0.0487129
0.0497658
0.0513562
0.0534825
0.0562673
0.0590895
0.0628765
0
0.279181
0.0869412
0.0550197
0.057433
0.0699038
0.0880666
0.110781
0.137833
0.169158
0.20475
0.244541
0.288452
0.336378
0.388275
0.444148
0.504082
0.568191
0.636614
0.709457
0.786837
0.868867
0.955593
1.04704
1.14309
1.2436
1.34832
1.45693
1.56905
1.68426
1.80208
1.922
2.0435
2.16604
2.28906
2.41203
2.53442
2.65573
2.77549
2.89325
3.00863
3.12126
3.23085
3.33716
3.43999
3.53924
3.63481
3.72667
3.81479
3.89916
3.97979
4.05674
4.12997
4.19948
4.26528
4.32733
4.38562
4.44007
4.4905
4.53672
4.57851
4.61529
4.64699
4.67329
4.69398
4.7087
4.71672
4.71793
4.71188
4.6981
4.67626
4.64613
4.60763
4.56048
4.50529
4.4416
4.37033
4.29161
4.2059
4.11374
4.01567
3.9123
3.80419
3.69204
3.57655
3.45837
3.33823
3.21679
3.09469
2.97254
2.85085
2.73012
2.61083
2.49342
2.37827
2.26576
2.1561
2.0495
1.94615
1.84619
1.74975
1.6569
1.5677
1.48216
1.40029
1.32206
1.24745
1.17638
1.10879
1.04458
0.983666
0.92595
0.871337
0.819714
0.770959
0.724939
0.681534
0.640622
0.602096
0.565841
0.53175
0.499711
0.469617
0.441365
0.414854
0.389988
0.366674
0.344823
0.324349
0.305168
0.287203
0.270384
0.254642
0.239915
0.226137
0.213248
0.201188
0.189904
0.179345
0.169464
0.160218
0.151564
0.143466
0.135885
0.128789
0.122145
0.115923
0.110097
0.104638
0.0995241
0.0947316
0.0902399
0.0860294
0.0820822
0.0783817
0.074913
0.0716622
0.0686173
0.0657674
0.063103
0.0606166
0.0583022
0.0561556
0.0541751
0.0523613