/*--------------------------------*- C++ -*----------------------------------*\
  =========                 |
  \\      /  F ield         | OpenFOAM: The Open Source CFD Toolbox
   \\    /   O peration     | Website:  https://openfoam.org
    \\  /    A nd           | Version:  10
     \\/     M anipulation  |
\*---------------------------------------------------------------------------*/
FoamFile
{
    format      ascii;
    class       volVectorField;
    location    "100";
    object      U;
}
// * * * * * * * * * * * * * * * * * * * * * * * * * * * * * * * * * * * * * //

dimensions      [0 1 -1 0 0 0 0];

internalField   nonuniform List<vector> 
12225
(
(0.0792895 -0.0692425 0)
(0.149123 -0.0159578 0)
(0.200757 -0.00945909 0)
(0.247466 -0.00839215 0)
(0.288522 -0.00758449 0)
(0.323985 -0.00661584 0)
(0.354003 -0.0057323 0)
(0.379394 -0.00498763 0)
(0.401031 -0.00436774 0)
(0.41961 -0.00385674 0)
(0.435709 -0.0034406 0)
(0.449827 -0.00311172 0)
(0.462426 -0.00287354 0)
(0.473974 -0.00275101 0)
(0.485169 -0.00281359 0)
(0.496941 -0.00334068 0)
(0.512887 -0.00472045 0)
(0.535434 -0.0144683 0)
(0.204528 -0.0223796 0)
(0.255383 -0.0233946 0)
(0.323177 -0.020391 0)
(0.380037 -0.0182161 0)
(0.428456 -0.0164465 0)
(0.470657 -0.0146107 0)
(0.507224 -0.0129502 0)
(0.538959 -0.0115249 0)
(0.566664 -0.0103207 0)
(0.591006 -0.0093166 0)
(0.612555 -0.00849322 0)
(0.631812 -0.00784364 0)
(0.64924 -0.00738362 0)
(0.665299 -0.00717648 0)
(0.680587 -0.00739189 0)
(0.695793 -0.00853985 0)
(0.712538 -0.0120391 0)
(0.729298 -0.0221712 0)
(0.296252 -0.031312 0)
(0.338007 -0.0373604 0)
(0.405669 -0.0334042 0)
(0.461929 -0.0300344 0)
(0.509857 -0.0271358 0)
(0.551906 -0.0243509 0)
(0.588713 -0.021859 0)
(0.621015 -0.0197011 0)
(0.649503 -0.0178606 0)
(0.674762 -0.016312 0)
(0.697304 -0.0150318 0)
(0.717584 -0.0140137 0)
(0.73602 -0.0132829 0)
(0.753013 -0.0129274 0)
(0.769013 -0.0131662 0)
(0.78439 -0.0145567 0)
(0.799535 -0.0183373 0)
(0.81218 -0.0268471 0)
(0.391169 -0.0438221 0)
(0.422159 -0.0520653 0)
(0.482212 -0.0478442 0)
(0.534118 -0.0433404 0)
(0.57923 -0.0392373 0)
(0.619213 -0.0354323 0)
(0.654536 -0.0320375 0)
(0.685817 -0.0290796 0)
(0.713624 -0.0265401 0)
(0.73845 -0.0243885 0)
(0.760737 -0.0225975 0)
(0.78088 -0.0211603 0)
(0.79924 -0.0201066 0)
(0.816147 -0.0195349 0)
(0.831913 -0.0196689 0)
(0.846673 -0.0209929 0)
(0.860306 -0.0243385 0)
(0.870755 -0.030506 0)
(0.492395 -0.0514195 0)
(0.512531 -0.064777 0)
(0.561539 -0.061884 0)
(0.606973 -0.0567571 0)
(0.647782 -0.0516393 0)
(0.684539 -0.0469074 0)
(0.717383 -0.0426637 0)
(0.746743 -0.038939 0)
(0.773051 -0.0357188 0)
(0.796695 -0.0329712 0)
(0.818036 -0.0306675 0)
(0.837403 -0.0288002 0)
(0.855092 -0.0273983 0)
(0.871358 -0.0265548 0)
(0.886399 -0.026462 0)
(0.90021 -0.027473 0)
(0.912529 -0.0300327 0)
(0.921658 -0.0341278 0)
(0.600359 -0.054503 0)
(0.610308 -0.0745736 0)
(0.646751 -0.0742334 0)
(0.684325 -0.069265 0)
(0.719624 -0.0635391 0)
(0.752216 -0.0581021 0)
(0.781791 -0.0531535 0)
(0.808534 -0.0487635 0)
(0.832716 -0.0449351 0)
(0.85461 -0.0416428 0)
(0.874486 -0.0388604 0)
(0.892599 -0.03658 0)
(0.909178 -0.0348256 0)
(0.924405 -0.0336729 0)
(0.938392 -0.0332636 0)
(0.95106 -0.0338145 0)
(0.962168 -0.0354878 0)
(0.970372 -0.0379415 0)
(0.714675 -0.0541824 0)
(0.715662 -0.0810948 0)
(0.739268 -0.0841765 0)
(0.767976 -0.0802189 0)
(0.796814 -0.0744262 0)
(0.824414 -0.0685905 0)
(0.850022 -0.0631408 0)
(0.873535 -0.0582291 0)
(0.895042 -0.0538974 0)
(0.914689 -0.0501371 0)
(0.932649 -0.0469303 0)
(0.949098 -0.0442698 0)
(0.964192 -0.0421728 0)
(0.978048 -0.0406914 0)
(0.990717 -0.0399125 0)
(1.00209 -0.0399382 0)
(1.01201 -0.0407527 0)
(1.0194 -0.0419305 0)
(0.834396 -0.0513058 0)
(0.828066 -0.0841846 0)
(0.839617 -0.0912174 0)
(0.858789 -0.0890538 0)
(0.880503 -0.0838158 0)
(0.902394 -0.0779573 0)
(0.923409 -0.072263 0)
(0.943133 -0.0670138 0)
(0.961462 -0.0623142 0)
(0.978405 -0.0581871 0)
(0.994032 -0.0546295 0)
(1.00844 -0.0516388 0)
(1.0217 -0.0492249 0)
(1.03389 -0.047416 0)
(1.04501 -0.0462498 0)
(1.05494 -0.0457445 0)
(1.06361 -0.0457883 0)
(1.07015 -0.045984 0)
(0.958154 -0.0466525 0)
(0.946499 -0.0839033 0)
(0.947509 -0.0949991 0)
(0.957081 -0.0952612 0)
(0.971211 -0.0911821 0)
(0.986863 -0.0857433 0)
(1.00275 -0.0801073 0)
(1.01818 -0.0747461 0)
(1.03287 -0.0698478 0)
(1.04669 -0.065482 0)
(1.05959 -0.0616702 0)
(1.0716 -0.0584189 0)
(1.08272 -0.0557338 0)
(1.09297 -0.0536229 0)
(1.10231 -0.0520861 0)
(1.11064 -0.0510883 0)
(1.11796 -0.0504792 0)
(1.12351 -0.0499314 0)
(1.08433 -0.0409868 0)
(1.06952 -0.0805621 0)
(1.06192 -0.0953695 0)
(1.06259 -0.098419 0)
(1.06893 -0.0960199 0)
(1.07805 -0.0914556 0)
(1.08838 -0.086221 0)
(1.09912 -0.0810101 0)
(1.10977 -0.0761148 0)
(1.12008 -0.0716663 0)
(1.1299 -0.0677212 0)
(1.13918 -0.0643015 0)
(1.14786 -0.0614136 0)
(1.15591 -0.0590528 0)
(1.16326 -0.0571948 0)
(1.16982 -0.0557765 0)
(1.17564 -0.0546465 0)
(1.18001 -0.0535516 0)
(1.21121 -0.0349638 0)
(1.19522 -0.0746993 0)
(1.18127 -0.0924208 0)
(1.17423 -0.0982689 0)
(1.17311 -0.0979158 0)
(1.17565 -0.0946272 0)
(1.18023 -0.0901441 0)
(1.18597 -0.0853619 0)
(1.19226 -0.0806949 0)
(1.19874 -0.0763447 0)
(1.20518 -0.0724112 0)
(1.21144 -0.0689388 0)
(1.21741 -0.0659413 0)
(1.22302 -0.0634096 0)
(1.22818 -0.0613086 0)
(1.2328 -0.0595675 0)
(1.23695 -0.0580536 0)
(1.23993 -0.05658 0)
(1.3266 -0.0294632 0)
(1.31091 -0.0676839 0)
(1.29333 -0.0870505 0)
(1.28064 -0.0951297 0)
(1.27344 -0.0967481 0)
(1.27021 -0.0948875 0)
(1.26957 -0.0913688 0)
(1.27061 -0.0872239 0)
(1.27274 -0.0829738 0)
(1.2755 -0.0788878 0)
(1.27862 -0.0751102 0)
(1.28189 -0.0717116 0)
(1.28517 -0.0687174 0)
(1.28835 -0.0661224 0)
(1.29133 -0.0638919 0)
(1.29402 -0.06196 0)
(1.29648 -0.060215 0)
(1.298 -0.0585391 0)
(1.43841 -0.0243033 0)
(1.42407 -0.0597878 0)
(1.40472 -0.0798022 0)
(1.3878 -0.0896021 0)
(1.3755 -0.0930625 0)
(1.36705 -0.0927128 0)
(1.36145 -0.0903172 0)
(1.35792 -0.0869851 0)
(1.35588 -0.0833149 0)
(1.35488 -0.0796409 0)
(1.3546 -0.076149 0)
(1.35479 -0.072937 0)
(1.35529 -0.0700468 0)
(1.35594 -0.0674821 0)
(1.35664 -0.0652157 0)
(1.3573 -0.0631933 0)
(1.35795 -0.0613259 0)
(1.35791 -0.0595596 0)
(1.56063 -0.0191687 0)
(1.54855 -0.050174 0)
(1.52917 -0.0695998 0)
(1.50932 -0.0804822 0)
(1.49265 -0.0856199 0)
(1.47924 -0.0869131 0)
(1.46857 -0.0859037 0)
(1.46016 -0.0836712 0)
(1.45354 -0.0808491 0)
(1.44831 -0.0778259 0)
(1.44414 -0.0748278 0)
(1.44078 -0.0719824 0)
(1.43802 -0.0693523 0)
(1.43571 -0.0669569 0)
(1.43372 -0.0647835 0)
(1.43195 -0.0627958 0)
(1.43042 -0.0609353 0)
(1.42846 -0.0591861 0)
(1.68899 -0.0143487 0)
(1.67946 -0.0393635 0)
(1.66171 -0.0566325 0)
(1.64081 -0.067429 0)
(1.62119 -0.0735576 0)
(1.60378 -0.0762803 0)
(1.58857 -0.0767197 0)
(1.57545 -0.0757728 0)
(1.56421 -0.0740454 0)
(1.55455 -0.0719296 0)
(1.54621 -0.0696714 0)
(1.53895 -0.0674206 0)
(1.53258 -0.0652609 0)
(1.52694 -0.0632304 0)
(1.5219 -0.0613358 0)
(1.51735 -0.0595632 0)
(1.51328 -0.057886 0)
(1.50906 -0.0563101 0)
(1.81513 -0.00989144 0)
(1.8078 -0.028015 0)
(1.7926 -0.0415155 0)
(1.77247 -0.0507021 0)
(1.75178 -0.0566389 0)
(1.73204 -0.060038 0)
(1.71361 -0.0615509 0)
(1.69672 -0.0617927 0)
(1.68144 -0.0612291 0)
(1.6677 -0.0601818 0)
(1.65535 -0.05887 0)
(1.64424 -0.0574399 0)
(1.63421 -0.0559829 0)
(1.62513 -0.0545507 0)
(1.61688 -0.0531673 0)
(1.60935 -0.05184 0)
(1.60251 -0.0505681 0)
(1.59584 -0.049375 0)
(1.924 -0.00564037 0)
(1.91818 -0.0163994 0)
(1.90543 -0.0248979 0)
(1.88703 -0.0310436 0)
(1.86685 -0.0353789 0)
(1.84657 -0.0382637 0)
(1.82671 -0.039992 0)
(1.80766 -0.0408729 0)
(1.78971 -0.0411669 0)
(1.77299 -0.0410658 0)
(1.75751 -0.0407083 0)
(1.74323 -0.0401943 0)
(1.73007 -0.0395932 0)
(1.71794 -0.0389499 0)
(1.70678 -0.0382919 0)
(1.69649 -0.0376361 0)
(1.68704 -0.0369958 0)
(1.67805 -0.0364037 0)
(1.99017 -0.00127935 0)
(1.98507 -0.00413154 0)
(1.9739 -0.00665334 0)
(1.95703 -0.00864648 0)
(1.93784 -0.0102285 0)
(1.91802 -0.0114734 0)
(1.8981 -0.0124235 0)
(1.87847 -0.0131415 0)
(1.85951 -0.0136909 0)
(1.84145 -0.0141193 0)
(1.82439 -0.014461 0)
(1.80838 -0.0147419 0)
(1.79342 -0.0149811 0)
(1.77947 -0.0151918 0)
(1.76649 -0.0153835 0)
(1.75443 -0.0155646 0)
(1.74324 -0.0157451 0)
(1.73277 -0.0159533 0)
(1.97278 0.00307253 0)
(1.96829 0.00877284 0)
(1.9575 0.0132795 0)
(1.94085 0.0165083 0)
(1.9218 0.0186748 0)
(1.90214 0.0199875 0)
(1.88243 0.0206237 0)
(1.86306 0.0207445 0)
(1.84439 0.0204838 0)
(1.82665 0.0199458 0)
(1.80993 0.0192107 0)
(1.79426 0.0183409 0)
(1.77962 0.0173839 0)
(1.76599 0.0163753 0)
(1.7533 0.0153412 0)
(1.7415 0.0142991 0)
(1.73052 0.013257 0)
(1.72042 0.0122028 0)
(1.85389 0.00815069 0)
(1.84655 0.0231805 0)
(1.83221 0.0347071 0)
(1.81266 0.042657 0)
(1.79198 0.0477719 0)
(1.7719 0.0506773 0)
(1.7528 0.0518948 0)
(1.73492 0.0519044 0)
(1.71841 0.051094 0)
(1.7033 0.0497456 0)
(1.68951 0.0480595 0)
(1.67693 0.0461779 0)
(1.66546 0.0442004 0)
(1.65498 0.0421948 0)
(1.64538 0.0402062 0)
(1.63658 0.0382631 0)
(1.62848 0.0363798 0)
(1.62122 0.034552 0)
(1.6912 0.0143004 0)
(1.68143 0.0385604 0)
(1.66397 0.0553653 0)
(1.64298 0.0657691 0)
(1.62301 0.0715066 0)
(1.60526 0.0738932 0)
(1.58962 0.0739874 0)
(1.57596 0.0726229 0)
(1.56411 0.0703875 0)
(1.55381 0.0676732 0)
(1.54483 0.0647306 0)
(1.53695 0.0617194 0)
(1.52998 0.0587389 0)
(1.52379 0.0558476 0)
(1.51825 0.0530784 0)
(1.51327 0.0504472 0)
(1.50874 0.0479572 0)
(1.50483 0.0455983 0)
(1.49891 0.0216608 0)
(1.48572 0.0546187 0)
(1.46672 0.0743068 0)
(1.44785 0.0845922 0)
(1.43264 0.0887917 0)
(1.42105 0.0890885 0)
(1.41222 0.0870795 0)
(1.4055 0.0838637 0)
(1.4004 0.0800718 0)
(1.39653 0.0760773 0)
(1.39357 0.0720921 0)
(1.39128 0.0682337 0)
(1.38949 0.0645634 0)
(1.38808 0.0611092 0)
(1.38696 0.0578788 0)
(1.38605 0.0548689 0)
(1.38528 0.0520685 0)
(1.38484 0.04946 0)
(1.29314 0.0305414 0)
(1.27753 0.0697931 0)
(1.26116 0.0887764 0)
(1.24939 0.0961837 0)
(1.24313 0.0972156 0)
(1.2408 0.0948002 0)
(1.24086 0.0906885 0)
(1.24242 0.0859053 0)
(1.24489 0.0809902 0)
(1.24787 0.0761904 0)
(1.2511 0.0716301 0)
(1.2544 0.067366 0)
(1.25768 0.0634137 0)
(1.26087 0.0597673 0)
(1.26392 0.0564106 0)
(1.26681 0.0533225 0)
(1.26952 0.0504812 0)
(1.27222 0.0478632 0)
(1.08551 0.0402538 0)
(1.0709 0.0811701 0)
(1.06284 0.0957638 0)
(1.06276 0.0987601 0)
(1.0683 0.0964126 0)
(1.07661 0.0917181 0)
(1.08612 0.0861877 0)
(1.09599 0.0805918 0)
(1.10575 0.0752261 0)
(1.11514 0.0702113 0)
(1.12403 0.065589 0)
(1.13236 0.0613591 0)
(1.14011 0.0575024 0)
(1.1473 0.0539906 0)
(1.15395 0.0507926 0)
(1.1601 0.0478768 0)
(1.16575 0.0452155 0)
(1.17109 0.0427834 0)
(0.884966 0.04893 0)
(0.876088 0.0857901 0)
(0.881818 0.0938807 0)
(0.896528 0.0926322 0)
(0.91454 0.087858 0)
(0.933244 0.0819353 0)
(0.95154 0.0759668 0)
(0.968843 0.0703209 0)
(0.984944 0.0651156 0)
(0.999803 0.0603788 0)
(1.01345 0.0560958 0)
(1.02594 0.0522337 0)
(1.03736 0.0487535 0)
(1.0478 0.0456149 0)
(1.05734 0.0427791 0)
(1.06607 0.0402101 0)
(1.07405 0.0378785 0)
(1.08146 0.035762 0)
(0.69829 0.053864 0)
(0.699782 0.081961 0)
(0.72322 0.0837452 0)
(0.753242 0.0796505 0)
(0.782634 0.0738293 0)
(0.810407 0.0678739 0)
(0.836072 0.0622941 0)
(0.859463 0.0572025 0)
(0.880678 0.0526171 0)
(0.899884 0.0485148 0)
(0.917257 0.0448538 0)
(0.932975 0.0415863 0)
(0.947209 0.0386662 0)
(0.960115 0.0360507 0)
(0.971833 0.0337009 0)
(0.982492 0.0315822 0)
(0.99219 0.0296664 0)
(1.00112 0.0279393 0)
(0.530078 0.0518727 0)
(0.545267 0.0697551 0)
(0.587378 0.0673651 0)
(0.630792 0.0621752 0)
(0.669577 0.0567538 0)
(0.704514 0.05168 0)
(0.735891 0.0470573 0)
(0.763933 0.0429159 0)
(0.788988 0.0392386 0)
(0.811401 0.0359858 0)
(0.831478 0.0331095 0)
(0.849496 0.0305618 0)
(0.8657 0.0282995 0)
(0.880305 0.0262839 0)
(0.893498 0.0244813 0)
(0.905444 0.0228615 0)
(0.916271 0.0213996 0)
(0.92618 0.0200922 0)
(0.382206 0.0412412 0)
(0.412768 0.0512903 0)
(0.470217 0.0478276 0)
(0.523728 0.0431671 0)
(0.569333 0.0391013 0)
(0.60934 0.035365 0)
(0.6447 0.0319594 0)
(0.675905 0.0289358 0)
(0.703484 0.0262776 0)
(0.727928 0.0239464 0)
(0.74965 0.0219009 0)
(0.769008 0.0201015 0)
(0.786309 0.0185128 0)
(0.801816 0.0171044 0)
(0.815753 0.0158504 0)
(0.828313 0.0147273 0)
(0.839649 0.013712 0)
(0.849972 0.0128114 0)
(0.251783 0.0300847 0)
(0.298438 0.032233 0)
(0.362142 0.0294717 0)
(0.420595 0.0261619 0)
(0.46984 0.0235858 0)
(0.512464 0.0211574 0)
(0.549734 0.0188914 0)
(0.582266 0.0168887 0)
(0.610709 0.0151473 0)
(0.635673 0.013636 0)
(0.657663 0.0123231 0)
(0.677103 0.0111787 0)
(0.694346 0.0101764 0)
(0.70969 0.00929411 0)
(0.723386 0.00851407 0)
(0.73565 0.00781916 0)
(0.746644 0.00718508 0)
(0.756589 0.00662296 0)
(0.103984 0.0790069 0)
(0.181199 0.0254218 0)
(0.234656 0.0163688 0)
(0.287445 0.0138765 0)
(0.333245 0.0124477 0)
(0.372565 0.011065 0)
(0.406414 0.00973865 0)
(0.435376 0.00857525 0)
(0.460164 0.00757943 0)
(0.481476 0.00672628 0)
(0.499877 0.00599333 0)
(0.515822 0.00536108 0)
(0.529688 0.00481205 0)
(0.541786 0.004333 0)
(0.552371 0.0039114 0)
(0.561663 0.00354209 0)
(0.569808 0.00320105 0)
(0.576965 0.00290098 0)
(0.00286108 -0.00696923 -9.12685e-21)
(0.0106073 -0.0117076 1.07621e-20)
(0.0177928 -0.0106101 0)
(0.022376 -0.00679252 0)
(0.0235464 -0.00238756 0)
(0.021326 0.00143703 -8.10497e-21)
(0.0166318 0.00425522 0)
(0.0101162 0.00618877 0)
(0.00221463 0.00754932 0)
(-0.00683442 0.00860462 0)
(-0.0169861 0.0095852 6.99762e-21)
(-0.0282349 0.010629 0)
(-0.040565 0.0117513 0)
(-0.0539357 0.0128955 0)
(-0.0682697 0.0139902 0)
(-0.0834571 0.0149801 4.07723e-21)
(-0.0993637 0.0158292 0)
(-0.115842 0.0165127 0)
(-0.132737 0.0170155 0)
(-0.149896 0.0173343 0)
(-0.167173 0.017479 0)
(-0.184432 0.0174678 0)
(-0.201555 0.0173147 0)
(-0.218436 0.0170329 2.57701e-21)
(-0.234983 0.0166415 -2.49587e-21)
(-0.251122 0.0161604 2.42572e-21)
(-0.266789 0.0156085 2.36436e-21)
(-0.281937 0.0150023 0)
(-0.296529 0.0143567 0)
(-0.310537 0.013684 -2.21653e-21)
(-0.32394 0.0129945 -2.17511e-21)
(-0.336726 0.012296 0)
(-0.348887 0.011595 0)
(-0.360416 0.010896 -2.06202e-21)
(-0.371313 0.0102024 0)
(-0.381576 0.00951566 0)
(-0.391205 0.00883694 1.95356e-21)
(-0.400201 0.00816492 0)
(-0.408563 0.00749836 1.87875e-21)
(-0.416289 0.00683312 3.67959e-21)
(-0.423374 0.00616561 0)
(-0.429814 0.00548992 0)
(-0.435602 0.00480242 0)
(-0.44073 0.00409907 0)
(-0.445189 0.0033807 0)
(-0.448968 0.00264946 3.13519e-21)
(-0.452054 0.00191322 3.02858e-21)
(-0.45443 0.00118 2.91729e-21)
(-0.456073 0.000461694 0)
(-0.456965 -0.000229693 -2.67847e-21)
(-0.457064 -0.000863645 0)
(-0.456507 -0.00144237 2.40813e-21)
(-0.455289 -0.00199261 2.26143e-21)
(-0.453422 -0.002527 0)
(-0.450915 -0.00304967 0)
(-0.447771 -0.00356437 0)
(-0.443995 -0.00407005 1.58971e-21)
(-0.439589 -0.00456807 0)
(-0.434558 -0.00505623 0)
(-0.428909 -0.00553551 0)
(-0.42265 -0.00600317 0)
(-0.41579 -0.00645984 0)
(-0.408339 -0.00690282 0)
(-0.400311 -0.00733259 0)
(-0.391721 -0.00774642 0)
(-0.382587 -0.00814451 5.35754e-22)
(-0.372926 -0.00852479 0)
(-0.362761 -0.00887843 0)
(-0.352113 -0.00922683 -1.4823e-21)
(-0.340998 -0.00957573 -1.82961e-21)
(-0.329445 -0.0098814 0)
(-0.317485 -0.0101592 2.57616e-21)
(-0.305145 -0.0104226 -2.97721e-21)
(-0.29245 -0.0106655 0)
(-0.279429 -0.0108866 3.83993e-21)
(-0.266113 -0.0110864 0)
(-0.252531 -0.0112651 0)
(-0.238716 -0.0114231 -5.30372e-21)
(-0.2247 -0.0115607 0)
(-0.210511 -0.0116778 6.40958e-21)
(-0.196182 -0.0117757 0)
(-0.181745 -0.0118541 -7.63651e-21)
(-0.167229 -0.0119148 -8.30087e-21)
(-0.152663 -0.0119568 -9.00329e-21)
(-0.138074 -0.011983 -1.94923e-20)
(-0.123493 -0.0119924 2.10675e-20)
(-0.108945 -0.0119884 0)
(-0.0944598 -0.0119693 0)
(-0.0800627 -0.0119383 0)
(-0.0657778 -0.0118962 2.84294e-20)
(-0.0516156 -0.0118417 3.05944e-20)
(-0.0375903 -0.0117716 -3.29195e-20)
(-0.0237272 -0.0116793 0)
(-0.0100667 -0.0115499 3.79811e-20)
(0.00341703 -0.0113397 3.91745e-20)
(0.0167349 -0.0110491 3.90038e-20)
(0.0298352 -0.0107271 0)
(0.0426918 -0.0103938 0)
(0.0552842 -0.0100562 0)
(0.0675982 -0.00971742 3.83055e-20)
(0.079623 -0.00937966 0)
(0.0913512 -0.00904374 0)
(0.102777 -0.00871145 -3.77753e-20)
(0.113894 -0.00838243 0)
(0.124698 -0.00805879 0)
(0.135183 -0.00773976 -3.72477e-20)
(0.145345 -0.00742754 0)
(0.155185 -0.00712114 0)
(0.164701 -0.006821 3.67344e-20)
(0.173894 -0.00652842 3.65686e-20)
(0.182767 -0.00624769 0)
(0.191324 -0.00597415 -3.62494e-20)
(0.199568 -0.00570736 0)
(0.207504 -0.00544613 3.5946e-20)
(0.215134 -0.00519235 0)
(0.222464 -0.0049452 3.5657e-20)
(0.229498 -0.00470604 3.5518e-20)
(0.236241 -0.00447347 0)
(0.242698 -0.00424768 0)
(0.248876 -0.00402893 0)
(0.25478 -0.0038192 0)
(0.26042 -0.00361701 0)
(0.265802 -0.00342246 0)
(0.270931 -0.00323435 0)
(0.275811 -0.00305379 3.45616e-20)
(0.280447 -0.00287976 -3.44636e-20)
(0.284848 -0.00271292 0)
(0.289021 -0.00255235 0)
(0.292973 -0.00239889 0)
(0.296712 -0.00225146 0)
(0.300244 -0.00211053 -6.80652e-20)
(0.303577 -0.00197561 0)
(0.306716 -0.00184745 6.7781e-20)
(0.309668 -0.00172503 -6.7653e-20)
(0.31244 -0.00160874 0)
(0.315038 -0.00149784 0)
(0.31747 -0.00139272 0)
(0.319742 -0.00129263 6.72166e-20)
(0.321861 -0.00119782 6.71245e-20)
(0.323832 -0.00110785 0)
(0.325663 -0.0010229 6.6959e-20)
(0.327361 -0.000942655 6.68852e-20)
(0.328935 -0.000866964 -6.68168e-20)
(0.330389 -0.000795496 0)
(0.331728 -0.000728232 0)
(0.33296 -0.000664939 -6.66381e-20)
(0.334088 -0.000605566 0)
(0.335119 -0.000549912 0)
(0.336057 -0.000497922 0)
(0.33691 -0.000449342 0)
(0.33768 -0.00040407 6.6401e-20)
(0.338373 -0.000361728 6.63593e-20)
(0.338992 -0.000321855 0)
(0.339542 -0.000282742 6.62776e-20)
(0.340012 -0.00024424 0)
(0.340412 -0.000208198 0)
(0.340751 -0.000175421 6.61466e-20)
(0.341034 -0.000145901 0)
(0.341267 -0.000119459 6.60641e-20)
(0.341453 -9.56497e-05 0)
(0.341596 -7.39817e-05 0)
(0.341696 -5.3755e-05 6.59399e-20)
(0.341752 -3.41372e-05 0)
(0.341765 -1.43763e-05 6.58582e-20)
(0.34173 6.11099e-06 0)
(0.341643 2.8192e-05 0)
(0.341495 5.24882e-05 0)
(0.341276 8.02524e-05 -6.57296e-20)
(0.340969 0.000113369 0)
(0.34055 0.000152019 6.57207e-20)
(0.340004 0.00020419 0)
(0.339268 0.000274101 0)
(0.338282 0.000363128 0)
(0.336958 0.000491829 0)
(0.335128 0.000685229 0)
(0.33247 0.000970191 0)
(0.328788 0.00142087 0)
(0.322477 0.00220141 -1.36243e-19)
(0.315627 0.00354195 0)
(0.291562 0.00595785 0)
(0.0028278 -0.0210768 2.4202e-20)
(0.00646754 -0.0235266 -2.24245e-20)
(0.00597385 -0.0144664 0)
(0.00263566 -0.00387344 7.8961e-21)
(-0.0028673 0.00596692 0)
(-0.0102403 0.0142642 3.16197e-21)
(-0.0194516 0.0208288 -5.80472e-21)
(-0.0303628 0.0259063 -5.42694e-21)
(-0.0428045 0.0299347 0)
(-0.056542 0.0333154 -4.7527e-21)
(-0.0713221 0.0363068 -2.27333e-21)
(-0.0869313 0.0390157 0)
(-0.103178 0.041451 0)
(-0.119883 0.0435778 0)
(-0.136886 0.045345 0)
(-0.154047 0.046704 -1.69325e-21)
(-0.171228 0.047627 0)
(-0.1883 0.0481128 3.03422e-21)
(-0.205149 0.048182 0)
(-0.221678 0.0478678 0)
(-0.237804 0.047213 -2.7486e-21)
(-0.253461 0.0462648 0)
(-0.268599 0.0450717 2.62129e-21)
(-0.283181 0.0436803 -1.30516e-21)
(-0.297179 0.0421342 1.2822e-21)
(-0.310577 0.0404725 -1.26208e-21)
(-0.323366 0.0387298 -1.24413e-21)
(-0.335543 0.0369346 0)
(-0.347107 0.0351111 0)
(-0.358062 0.0332778 1.1984e-21)
(-0.368414 0.0314496 -1.15625e-21)
(-0.378168 0.0296365 0)
(-0.38733 0.0278463 0)
(-0.395907 0.0260832 1.14241e-21)
(-0.403904 0.02435 0)
(-0.411326 0.0226469 0)
(-0.418178 0.0209739 -1.09552e-21)
(-0.424462 0.0193291 0)
(-0.43018 0.0177111 1.04469e-21)
(-0.435334 0.0161168 -2.0807e-21)
(-0.439924 0.0145439 0)
(-0.443948 0.0129882 0)
(-0.447406 0.0114463 -3.88341e-21)
(-0.450295 0.00991315 -3.78884e-21)
(-0.452615 0.00838575 -3.68848e-21)
(-0.454368 0.0068603 1.79423e-21)
(-0.45556 0.00533728 -1.72839e-21)
(-0.4562 0.00381889 -5.01681e-21)
(-0.456305 0.00231506 3.22486e-21)
(-0.455891 0.000840401 1.53056e-21)
(-0.454994 -0.000581835 0)
(-0.453525 -0.00195051 -1.37818e-21)
(-0.451465 -0.0032802 1.3399e-21)
(-0.448799 -0.0045802 0)
(-0.445522 -0.00585329 0)
(-0.44163 -0.00710193 0)
(-0.437125 -0.0083242 -9.2569e-22)
(-0.432008 -0.00951974 0)
(-0.426283 -0.0106851 1.51476e-21)
(-0.419955 -0.0118192 0)
(-0.413031 -0.012918 1.07119e-21)
(-0.405521 -0.0139799 0)
(-0.397435 -0.0150008 -5.90453e-22)
(-0.388785 -0.0159794 0)
(-0.379585 -0.0169118 7.14117e-23)
(-0.369853 -0.0177969 3.28982e-23)
(-0.359606 -0.0186313 0)
(-0.348863 -0.0194145 7.8112e-22)
(-0.337643 -0.020145 6.21999e-22)
(-0.325974 -0.0208209 7.82772e-22)
(-0.313879 -0.0214341 0)
(-0.301378 -0.0219882 9.4074e-22)
(-0.2885 -0.0224854 1.29606e-21)
(-0.275274 -0.0229242 0)
(-0.261726 -0.0233035 -1.66404e-21)
(-0.247885 -0.0236236 3.50824e-21)
(-0.233781 -0.023885 0)
(-0.219444 -0.0240888 2.25582e-21)
(-0.204905 -0.0242363 0)
(-0.190192 -0.0243288 -7.80797e-21)
(-0.175337 -0.0243685 0)
(-0.160368 -0.024357 9.13077e-21)
(-0.145316 -0.0242974 3.35152e-21)
(-0.130207 -0.024191 -3.34785e-21)
(-0.11507 -0.0240418 -7.1737e-21)
(-0.0999305 -0.0238515 7.66442e-21)
(-0.0848156 -0.0236244 0)
(-0.0697513 -0.0233623 0)
(-0.0547619 -0.0230701 0)
(-0.0398697 -0.022751 -3.0292e-20)
(-0.0250884 -0.0224072 -1.08276e-20)
(-0.010432 -0.0220403 1.13845e-20)
(0.00409641 -0.0216523 0)
(0.0184825 -0.0212381 1.1573e-20)
(0.0326849 -0.0207762 -1.23189e-20)
(0.0466623 -0.0202622 -1.2565e-20)
(0.0604017 -0.0197146 0)
(0.0739052 -0.0191474 0)
(0.0871638 -0.018568 0)
(0.100168 -0.0179816 -1.34585e-20)
(0.112908 -0.0173918 0)
(0.125379 -0.0168013 2.73155e-20)
(0.137572 -0.0162125 4.17305e-20)
(0.149484 -0.015627 -2.80593e-20)
(0.161109 -0.0150472 0)
(0.172443 -0.0144739 -1.4202e-20)
(0.183481 -0.0139096 0)
(0.194224 -0.0133544 -2.93605e-20)
(0.20467 -0.0128101 1.46761e-20)
(0.214821 -0.0122762 1.48203e-20)
(0.224678 -0.0117549 0)
(0.234243 -0.0112461 4.57938e-20)
(0.243519 -0.0107507 -3.06807e-20)
(0.252508 -0.010268 -1.55754e-20)
(0.261215 -0.00979934 0)
(0.269642 -0.00934383 -1.57782e-20)
(0.277795 -0.00890231 -4.74064e-20)
(0.285675 -0.00847373 0)
(0.293288 -0.00805886 -3.19012e-20)
(0.300639 -0.00765766 -3.20714e-20)
(0.307736 -0.0072706 -3.22371e-20)
(0.314586 -0.00689649 0)
(0.321194 -0.00653626 0)
(0.327563 -0.00618941 0)
(0.333698 -0.00585681 1.63484e-20)
(0.339603 -0.00553728 1.65584e-20)
(0.345284 -0.00523139 0)
(0.350748 -0.00493815 3.32317e-20)
(0.356 -0.00465791 3.33496e-20)
(0.361047 -0.00438937 0)
(0.365893 -0.00413288 3.36789e-20)
(0.370545 -0.00388741 6.73558e-20)
(0.375009 -0.00365305 -3.38792e-20)
(0.379291 -0.0034289 -3.37926e-20)
(0.383397 -0.00321569 0)
(0.387332 -0.00301285 0)
(0.391103 -0.0028207 0)
(0.394714 -0.00263847 -3.43328e-20)
(0.398171 -0.00246602 3.42732e-20)
(0.401478 -0.0023027 6.88522e-20)
(0.404643 -0.00214837 -3.45693e-20)
(0.407671 -0.00200244 3.45235e-20)
(0.410568 -0.00186449 3.47157e-20)
(0.41334 -0.00173419 0)
(0.415991 -0.00161145 0)
(0.418526 -0.00149608 -3.48196e-20)
(0.420949 -0.00138789 0)
(0.423265 -0.0012866 0)
(0.425478 -0.00119189 7.00993e-20)
(0.427594 -0.00110337 0)
(0.429615 -0.00102064 3.51188e-20)
(0.431547 -0.000943221 -3.52385e-20)
(0.433393 -0.000870321 0)
(0.435159 -0.000800351 3.52581e-20)
(0.436856 -0.000733495 0)
(0.438483 -0.000671584 0)
(0.44004 -0.00061508 -3.54175e-20)
(0.441528 -0.000563462 7.08367e-20)
(0.442949 -0.000515936 -3.54667e-20)
(0.444306 -0.000471581 0)
(0.445599 -0.000429462 0)
(0.446831 -0.000388652 3.54762e-20)
(0.448001 -0.000348236 0)
(0.44911 -0.000307051 3.54934e-20)
(0.450156 -0.000263855 0)
(0.451137 -0.00021695 0)
(0.452046 -0.00016401 0)
(0.452878 -0.000102638 3.5541e-20)
(0.453618 -2.97833e-05 0)
(0.454252 6.12598e-05 -3.55543e-20)
(0.454751 0.000174856 0)
(0.455088 0.00032219 0)
(0.455211 0.000523021 7.12037e-20)
(0.455044 0.000804777 -7.12714e-20)
(0.454526 0.00121027 0)
(0.453442 0.0018096 0)
(0.451712 0.00277086 0)
(0.448424 0.00427169 2.17539e-19)
(0.444985 0.00705885 0)
(0.433827 0.0119719 -1.5073e-19)
(0.00011509 -0.024934 -5.7569e-22)
(-0.00406545 -0.0165507 2.13797e-20)
(-0.0105654 -0.00202295 0)
(-0.0188288 0.0117415 -8.97089e-21)
(-0.0282969 0.0239564 0)
(-0.0386896 0.0345192 0)
(-0.0500214 0.0434333 4.25045e-23)
(-0.0623309 0.0508179 2.91233e-21)
(-0.0755751 0.0569064 2.7213e-21)
(-0.0896214 0.0619614 2.62832e-21)
(-0.104282 0.066186 0)
(-0.119355 0.0696937 0)
(-0.134655 0.0725306 -2.25918e-21)
(-0.150023 0.0747096 -4.34026e-21)
(-0.165322 0.0762354 4.18086e-21)
(-0.180438 0.0771163 0)
(-0.195287 0.077371 3.91363e-21)
(-0.209805 0.0770359 -1.91559e-21)
(-0.223949 0.0761643 0)
(-0.237685 0.0748202 3.62863e-21)
(-0.25099 0.0730727 1.78758e-21)
(-0.26385 0.0709915 -3.49841e-21)
(-0.276253 0.068643 -1.73039e-21)
(-0.288196 0.0660884 0)
(-0.299674 0.0633825 3.36144e-21)
(-0.310687 0.0605725 3.32604e-21)
(-0.321233 0.0576985 0)
(-0.331315 0.0547929 3.26399e-21)
(-0.34093 0.0518819 0)
(-0.35008 0.0489851 3.20781e-21)
(-0.358764 0.046117 1.59926e-21)
(-0.366981 0.0432874 0)
(-0.37473 0.0405028 0)
(-0.382008 0.037766 0)
(-0.388814 0.035078 0)
(-0.395145 0.0324376 0)
(-0.400996 0.0298427 0)
(-0.406366 0.0272902 2.94537e-21)
(-0.411249 0.0247769 -4.35854e-21)
(-0.415642 0.0222992 0)
(-0.419541 0.0198538 0)
(-0.422939 0.0174375 0)
(-0.425835 0.0150477 4.15356e-24)
(-0.428222 0.0126824 2.6303e-21)
(-0.430099 0.0103409 5.12336e-21)
(-0.431462 0.00802387 -4.97916e-21)
(-0.432307 0.00573386 -2.41671e-21)
(-0.432631 0.00347455 2.32619e-21)
(-0.432428 0.00125052 1.4415e-23)
(-0.431688 -0.000936946 2.15881e-21)
(-0.430398 -0.00309406 0)
(-0.428542 -0.00522504 1.95818e-21)
(-0.426112 -0.0073263 2.97483e-23)
(-0.423101 -0.00939562 0)
(-0.419502 -0.01143 0)
(-0.415315 -0.0134269 -1.49522e-21)
(-0.410537 -0.0153824 0)
(-0.405171 -0.0172929 0)
(-0.399218 -0.019154 1.14512e-21)
(-0.392684 -0.0209616 1.88945e-21)
(-0.385576 -0.0227106 -7.30042e-22)
(-0.377901 -0.0243967 0)
(-0.369669 -0.0260152 4.00629e-22)
(-0.360893 -0.0275618 0)
(-0.351586 -0.029032 2.08389e-22)
(-0.341764 -0.0304223 -1.36565e-22)
(-0.331443 -0.0317286 4.77024e-22)
(-0.320644 -0.0329482 3.37764e-22)
(-0.309385 -0.0340792 0)
(-0.297691 -0.0351206 -1.6621e-21)
(-0.285584 -0.0360655 0)
(-0.273085 -0.0369104 -3.87089e-21)
(-0.260222 -0.0376595 -2.94732e-21)
(-0.247023 -0.0383125 -3.39693e-21)
(-0.233513 -0.0388684 3.85694e-21)
(-0.21972 -0.0393275 -6.61324e-21)
(-0.205674 -0.0396911 0)
(-0.191403 -0.0399605 0)
(-0.176935 -0.040138 5.79702e-21)
(-0.162301 -0.040226 9.59313e-21)
(-0.147529 -0.0402279 0)
(-0.132647 -0.0401467 -3.81446e-21)
(-0.117684 -0.0399866 0)
(-0.102666 -0.0397511 1.27896e-20)
(-0.087621 -0.0394453 2.89179e-22)
(-0.0725735 -0.0390733 -2.9231e-22)
(-0.0575487 -0.0386408 -1.01124e-20)
(-0.042571 -0.0381522 0)
(-0.0276636 -0.0376137 1.1271e-20)
(-0.0128474 -0.0370313 3.02092e-22)
(0.00186704 -0.0364107 0)
(0.0164616 -0.035754 0)
(0.0309097 -0.0350589 0)
(0.0451915 -0.0343236 -1.38219e-20)
(0.0592867 -0.0335545 0)
(0.0731757 -0.0327546 0)
(0.0868467 -0.0319245 0)
(0.100292 -0.0310707 0)
(0.113502 -0.0301994 0)
(0.126468 -0.029316 -1.55975e-20)
(0.139183 -0.0284249 0)
(0.151639 -0.0275304 -1.64437e-20)
(0.163831 -0.0266354 -1.67283e-20)
(0.175754 -0.0257434 1.70037e-20)
(0.187402 -0.024857 0)
(0.198773 -0.023979 1.75276e-20)
(0.209863 -0.0231115 0)
(0.220671 -0.0222566 1.80174e-20)
(0.231196 -0.0214155 -1.82502e-20)
(0.241441 -0.0205899 -5.50707e-20)
(0.251405 -0.0197809 0)
(0.261089 -0.0189895 -5.6376e-20)
(0.270498 -0.0182162 -1.87885e-20)
(0.279632 -0.0174616 0)
(0.288496 -0.0167262 -3.8683e-20)
(0.297093 -0.0160104 -3.90589e-20)
(0.305427 -0.0153145 5.92667e-20)
(0.3135 -0.0146384 0)
(0.321319 -0.0139821 2.01782e-20)
(0.328888 -0.013346 2.03362e-20)
(0.336213 -0.0127307 6.12445e-20)
(0.343301 -0.0121359 0)
(0.350156 -0.0115617 0)
(0.356783 -0.0110079 0)
(0.363185 -0.0104746 2.08702e-20)
(0.369367 -0.00996121 0)
(0.375334 -0.00946731 0)
(0.381092 -0.00899266 -2.14355e-20)
(0.386647 -0.00853702 -2.15521e-20)
(0.392004 -0.00809967 0)
(0.397169 -0.00768041 0)
(0.402148 -0.00727895 -4.37644e-20)
(0.406946 -0.00689478 0)
(0.411571 -0.00652718 4.41837e-20)
(0.416026 -0.0061761 4.42676e-20)
(0.420318 -0.00584112 0)
(0.424451 -0.00552199 0)
(0.428431 -0.00521819 -4.48496e-20)
(0.432261 -0.00492912 -9.62402e-23)
(0.435949 -0.00465423 -9.16641e-23)
(0.439498 -0.0043931 0)
(0.442916 -0.00414512 -9.11838e-20)
(0.446206 -0.0039097 0)
(0.449375 -0.00368646 0)
(0.452427 -0.00347508 0)
(0.455366 -0.00327522 4.62461e-20)
(0.458196 -0.00308649 0)
(0.460921 -0.0029085 -9.29178e-20)
(0.463547 -0.00274076 -4.66509e-20)
(0.466076 -0.00258279 0)
(0.468513 -0.00243406 -4.68949e-20)
(0.470861 -0.00229401 0)
(0.473126 -0.00216201 0)
(0.47531 -0.00203756 -1.41562e-19)
(0.477418 -0.00192005 9.45419e-20)
(0.479456 -0.00180912 0)
(0.481424 -0.00170477 9.4906e-20)
(0.483325 -0.00160674 -4.75741e-20)
(0.485161 -0.00151443 0)
(0.486932 -0.00142696 0)
(0.48864 -0.00134325 0)
(0.490286 -0.00126201 -1.43452e-19)
(0.491873 -0.00118188 0)
(0.493397 -0.00110131 -4.79341e-20)
(0.494859 -0.00101841 0)
(0.496255 -0.000930674 0)
(0.497581 -0.000835012 0)
(0.498828 -0.000727377 0)
(0.499988 -0.000602676 0)
(0.501045 -0.000453058 0)
(0.501975 -0.00026781 -9.62713e-20)
(0.502752 -3.23631e-05 0)
(0.503334 0.000276557 -4.82579e-20)
(0.503658 0.000698523 1.44912e-19)
(0.50366 0.00128629 0)
(0.503208 0.00213297 0)
(0.502245 0.00343718 -9.73911e-20)
(0.500219 0.005432 -9.79806e-20)
(0.498117 0.00885684 9.89953e-20)
(0.492211 0.014623 1.01262e-19)
(-0.00318443 -0.0156544 -3.78541e-20)
(-0.0125759 0.0013931 -2.43156e-20)
(-0.0222953 0.0185724 -8.90222e-21)
(-0.0332769 0.0336292 -3.16625e-21)
(-0.0448782 0.0468787 0)
(-0.0567513 0.0584752 4.7756e-21)
(-0.0689292 0.0684761 -2.18144e-21)
(-0.0814737 0.0769389 0)
(-0.0943848 0.0839691 -1.9728e-21)
(-0.107602 0.0897061 0)
(-0.121023 0.0942893 3.59296e-21)
(-0.134529 0.0978344 0)
(-0.148002 0.100429 1.66343e-21)
(-0.161342 0.102138 3.21157e-21)
(-0.174468 0.103018 -3.10904e-21)
(-0.187321 0.103127 0)
(-0.19986 0.102531 -2.93924e-21)
(-0.212063 0.101301 0)
(-0.223917 0.0995172 0)
(-0.235416 0.0972574 -2.76107e-21)
(-0.246559 0.0946008 0)
(-0.257345 0.0916222 -2.08776e-23)
(-0.267777 0.0883903 0)
(-0.277855 0.0849669 0)
(-0.287578 0.0814059 1.75146e-23)