/*--------------------------------*- C++ -*----------------------------------*\
  =========                 |
  \\      /  F ield         | OpenFOAM: The Open Source CFD Toolbox
   \\    /   O peration     | Website:  https://openfoam.org
    \\  /    A nd           | Version:  10
     \\/     M anipulation  |
\*---------------------------------------------------------------------------*/
FoamFile
{
    format      ascii;
    class       volScalarField;
    location    "0.1";
    object      p;
}
// * * * * * * * * * * * * * * * * * * * * * * * * * * * * * * * * * * * * * //

dimensions      [0 2 -2 0 0 0 0];

internalField   nonuniform List<scalar> 
100
(
0.771258
0.800791
0.82531
0.842966
0.85223
0.842966
0.881968
0.915053
0.939297
0.952165
0.926937
0.979571
1.02551
1.05999
1.07859
1.02551
1.0982
1.16415
1.21535
1.24362
1.14087
1.24362
1.34194
1.42213
1.46802
1.27395
1.42213
1.57492
1.70919
1.79062
1.42213
1.63794
1.88493
2.1291
2.29312
1.57492
1.88493
2.29312
2.78081
3.17998
1.70919
2.1291
2.78081
3.82186
5.12756
1.79062
2.29312
3.17998
5.12756
11.4656
1.79062
2.29312
3.17998
5.12756
11.4656
1.70919
2.1291
2.78081
3.82186
5.12756
1.57492
1.88493
2.29312
2.78081
3.17998
1.42213
1.63794
1.88493
2.1291
2.29312
1.27395
1.42213
1.57492
1.70919
1.79062
1.14087
1.24362
1.34194
1.42213
1.46802
1.02551
1.0982
1.16415
1.21535
1.24362
0.926937
0.979571
1.02551
1.05999
1.07859
0.842966
0.881968
0.915053
0.939297
0.952165
0.771258
0.800791
0.82531
0.842966
0.85223
)
;

boundaryField
{
    movingWall
    {
        type            zeroGradient;
    }
    fixedWalls
    {
        type            zeroGradient;
    }
    frontAndBack
    {
        type            empty;
    }
    procBoundary1to0
    {
        type            processor;
        value           nonuniform List<scalar> 
20
(
0.738563
0.800791
0.871712
0.952165
1.04233
1.14087
1.24362
1.34194
1.42213
1.46802
1.46802
1.42213
1.34194
1.24362
1.14087
1.04233
0.952165
0.871712
0.800791
0.738563
)
;
    }
    procBoundary1to2
    {
        type            processor;
        value           nonuniform List<scalar> 
20
(
0.85223
0.952165
1.07859
1.24362
1.46802
1.79062
2.29312
3.17998
5.12756
11.4656
11.4656
5.12756
3.17998
2.29312
1.79062
1.46802
1.24362
1.07859
0.952165
0.85223
)
;
    }
}


// ************************************************************************* //
