/*--------------------------------*- C++ -*----------------------------------*\
  =========                 |
  \\      /  F ield         | OpenFOAM: The Open Source CFD Toolbox
   \\    /   O peration     | Website:  https://openfoam.org
    \\  /    A nd           | Version:  10
     \\/     M anipulation  |
\*---------------------------------------------------------------------------*/
FoamFile
{
    format      ascii;
    class       volVectorField;
    location    "0.2";
    object      U;
}
// * * * * * * * * * * * * * * * * * * * * * * * * * * * * * * * * * * * * * //

dimensions      [0 1 -1 0 0 0 0];

internalField   nonuniform List<vector> 
100
(
(5.26579 5.26579 0)
(10.7397 6.22133 0)
(11.0559 7.34214 0)
(11.1218 8.6309 0)
(10.8301 10.0687 0)
(6.22133 10.7397 0)
(12.816 12.816 0)
(13.4654 15.2978 0)
(13.8484 18.2132 0)
(13.8017 21.544 0)
(7.34214 11.0559 0)
(15.2978 13.4654 0)
(16.4531 16.4531 0)
(17.368 20.1123 0)
(17.8062 24.4928 0)
(8.6309 11.1218 0)
(18.2132 13.8484 0)
(20.1123 17.368 0)
(21.8881 21.8881 0)
(23.2261 27.6059 0)
(10.0687 10.8301 0)
(21.544 13.8017 0)
(24.4928 17.8062 0)
(27.6059 23.2261 0)
(30.5328 30.5328 0)
(11.6026 10.0687 0)
(25.1894 13.1347 0)
(29.5366 17.4519 0)
(34.6147 23.6296 0)
(40.1985 32.5696 0)
(13.1347 8.74582 0)
(28.9272 11.6639 0)
(34.9877 15.9498 0)
(42.7236 22.4325 0)
(52.4125 32.5349 0)
(14.5206 6.82412 0)
(32.3934 9.27606 0)
(40.3053 13.0127 0)
(51.1998 18.9546 0)
(66.4632 28.8841 0)
(15.5866 4.35564 0)
(35.1157 6.0048 0)
(44.6662 8.58826 0)
(58.595 12.8575 0)
(79.9048 20.399 0)
(16.1698 1.49889 0)
(36.626 2.08203 0)
(47.1579 3.00919 0)
(63.0105 4.57381 0)
(88.5074 7.42466 0)
(16.1698 -1.49889 0)
(36.626 -2.08203 0)
(47.1579 -3.00919 0)
(63.0105 -4.57381 0)
(88.5074 -7.42466 0)
(15.5866 -4.35564 0)
(35.1157 -6.0048 0)
(44.6662 -8.58826 0)
(58.595 -12.8575 0)
(79.9048 -20.399 0)
(14.5206 -6.82412 0)
(32.3934 -9.27606 0)
(40.3053 -13.0127 0)
(51.1998 -18.9546 0)
(66.4632 -28.8841 0)
(13.1347 -8.74582 0)
(28.9272 -11.6639 0)
(34.9877 -15.9498 0)
(42.7236 -22.4325 0)
(52.4125 -32.5349 0)
(11.6026 -10.0687 0)
(25.1894 -13.1347 0)
(29.5366 -17.4519 0)
(34.6147 -23.6296 0)
(40.1985 -32.5696 0)
(10.0687 -10.8301 0)
(21.544 -13.8017 0)
(24.4928 -17.8062 0)
(27.6059 -23.2261 0)
(30.5328 -30.5328 0)
(8.6309 -11.1218 0)
(18.2132 -13.8484 0)
(20.1123 -17.368 0)
(21.8881 -21.8881 0)
(23.2261 -27.6059 0)
(7.34214 -11.0559 0)
(15.2978 -13.4654 0)
(16.4531 -16.4531 0)
(17.368 -20.1123 0)
(17.8062 -24.4928 0)
(6.22133 -10.7397 0)
(12.816 -12.816 0)
(13.4654 -15.2978 0)
(13.8484 -18.2132 0)
(13.8017 -21.544 0)
(5.26579 -5.26579 0)
(10.7397 -6.22133 0)
(11.0559 -7.34214 0)
(11.1218 -8.6309 0)
(10.8301 -10.0687 0)
)
;

boundaryField
{
    movingWall
    {
        type            fixedValue;
        value           uniform (1 0 0);
    }
    fixedWalls
    {
        type            noSlip;
    }
    frontAndBack
    {
        type            empty;
    }
    procBoundary0to1
    {
        type            processor;
        value           nonuniform List<vector> 
20
(
(10.0687 11.6026 0)
(13.1347 25.1894 0)
(17.4519 29.5366 0)
(23.6296 34.6147 0)
(32.5696 40.1985 0)
(45.5092 45.5092 0)
(63.8028 48.6972 0)
(87.8568 46.4469 0)
(114.391 34.9017 0)
(133.504 13.1765 0)
(133.504 -13.1765 0)
(114.391 -34.9017 0)
(87.8568 -46.4469 0)
(63.8028 -48.6972 0)
(45.5092 -45.5092 0)
(32.5696 -40.1985 0)
(23.6296 -34.6147 0)
(17.4519 -29.5366 0)
(13.1347 -25.1894 0)
(10.0687 -11.6026 0)
)
;
    }
}


// ************************************************************************* //
