/*--------------------------------*- C++ -*----------------------------------*\
  =========                 |
  \\      /  F ield         | OpenFOAM: The Open Source CFD Toolbox
   \\    /   O peration     | Website:  https://openfoam.org
    \\  /    A nd           | Version:  10
     \\/     M anipulation  |
\*---------------------------------------------------------------------------*/
FoamFile
{
    format      ascii;
    class       volVectorField;
    location    "2";
    object      U;
}
// * * * * * * * * * * * * * * * * * * * * * * * * * * * * * * * * * * * * * //

dimensions      [0 1 -1 0 0 0 0];

internalField   nonuniform List<vector> 
400
(
(1.69583e-14 1.69583e-14 0)
(3.45868e-14 2.00356e-14 0)
(3.56052e-14 2.36452e-14 0)
(3.58175e-14 2.77956e-14 0)
(3.48779e-14 3.2426e-14 0)
(3.2426e-14 3.73658e-14 0)
(2.81657e-14 4.23e-14 0)
(2.19769e-14 4.67633e-14 0)
(1.40272e-14 5.01964e-14 0)
(4.82714e-15 5.20744e-14 0)
(-4.82714e-15 5.20744e-14 0)
(-1.40272e-14 5.01964e-14 0)
(-2.19769e-14 4.67633e-14 0)
(-2.81657e-14 4.23e-14 0)
(-3.2426e-14 3.73658e-14 0)
(-3.48779e-14 3.2426e-14 0)
(-3.58175e-14 2.77956e-14 0)
(-3.56052e-14 2.36452e-14 0)
(-3.45868e-14 2.00356e-14 0)
(-1.69583e-14 1.69583e-14 0)
(2.00356e-14 3.45868e-14 0)
(4.12736e-14 4.12736e-14 0)
(4.33651e-14 4.92662e-14 0)
(4.45983e-14 5.86552e-14 0)
(4.44481e-14 6.93818e-14 0)
(4.23e-14 8.11217e-14 0)
(3.75632e-14 9.31593e-14 0)
(2.98733e-14 1.04322e-13 0)
(1.93383e-14 1.13089e-13 0)
(6.70514e-15 1.17953e-13 0)
(-6.70514e-15 1.17953e-13 0)
(-1.93383e-14 1.13089e-13 0)
(-2.98733e-14 1.04322e-13 0)
(-3.75632e-14 9.31593e-14 0)
(-4.23e-14 8.11217e-14 0)
(-4.44481e-14 6.93818e-14 0)
(-4.45983e-14 5.86552e-14 0)
(-4.33651e-14 4.92662e-14 0)
(-4.12736e-14 4.12736e-14 0)
(-2.00356e-14 3.45868e-14 0)
(2.36452e-14 3.56052e-14 0)
(4.92662e-14 4.33651e-14 0)
(5.29867e-14 5.29867e-14 0)
(5.59331e-14 6.47712e-14 0)
(5.73445e-14 7.88784e-14 0)
(5.62034e-14 9.5122e-14 0)
(5.13661e-14 1.12677e-13 0)
(4.19069e-14 1.29802e-13 0)
(2.76583e-14 1.43846e-13 0)
(9.69101e-15 1.51871e-13 0)
(-9.69101e-15 1.51871e-13 0)
(-2.76583e-14 1.43846e-13 0)
(-4.19069e-14 1.29802e-13 0)
(-5.13661e-14 1.12677e-13 0)
(-5.62034e-14 9.5122e-14 0)
(-5.73445e-14 7.88784e-14 0)
(-5.59331e-14 6.47712e-14 0)
(-5.29867e-14 5.29867e-14 0)
(-4.92662e-14 4.33651e-14 0)
(-2.36452e-14 3.56052e-14 0)
(2.77956e-14 3.58175e-14 0)
(5.86552e-14 4.45983e-14 0)
(6.47712e-14 5.59331e-14 0)
(7.04901e-14 7.04901e-14 0)
(7.4799e-14 8.8904e-14 0)
(7.60985e-14 1.11476e-13 0)
(7.22434e-14 1.3759e-13 0)
(6.10427e-14 1.64888e-13 0)
(4.14072e-14 1.88704e-13 0)
(1.47299e-14 2.02924e-13 0)
(-1.47299e-14 2.02924e-13 0)
(-4.14072e-14 1.88704e-13 0)
(-6.10427e-14 1.64888e-13 0)
(-7.22434e-14 1.3759e-13 0)
(-7.60985e-14 1.11476e-13 0)
(-7.4799e-14 8.8904e-14 0)
(-7.04901e-14 7.04901e-14 0)
(-6.47712e-14 5.59331e-14 0)
(-5.86552e-14 4.45983e-14 0)
(-2.77956e-14 3.58175e-14 0)
(3.2426e-14 3.48779e-14 0)
(6.93818e-14 4.44481e-14 0)
(7.88784e-14 5.73445e-14 0)
(8.8904e-14 7.4799e-14 0)
(9.83302e-14 9.83302e-14 0)
(1.0489e-13 1.29458e-13 0)
(1.04778e-13 1.68793e-13 0)
(9.30205e-14 2.14043e-13 0)
(6.56943e-14 2.57331e-13 0)
(2.39109e-14 2.85036e-13 0)
(-2.39109e-14 2.85036e-13 0)
(-6.56943e-14 2.57331e-13 0)
(-9.30205e-14 2.14043e-13 0)
(-1.04778e-13 1.68793e-13 0)
(-1.0489e-13 1.29458e-13 0)
(-9.83302e-14 9.83302e-14 0)
(-8.8904e-14 7.4799e-14 0)
(-7.88784e-14 5.73445e-14 0)
(-6.93818e-14 4.44481e-14 0)
(-3.2426e-14 3.48779e-14 0)
(3.73658e-14 3.2426e-14 0)
(8.11217e-14 4.23e-14 0)
(9.5122e-14 5.62034e-14 0)
(1.11476e-13 7.60985e-14 0)
(1.29458e-13 1.0489e-13 0)
(1.46561e-13 1.46561e-13 0)
(1.56828e-13 2.05476e-13 0)
(1.49581e-13 2.82941e-13 0)
(1.124e-13 3.68393e-13 0)
(4.24345e-14 4.29946e-13 0)
(-4.24345e-14 4.29946e-13 0)
(-1.124e-13 3.68393e-13 0)
(-1.49581e-13 2.82941e-13 0)
(-1.56828e-13 2.05476e-13 0)
(-1.46561e-13 1.46561e-13 0)
(-1.29458e-13 1.0489e-13 0)
(-1.11476e-13 7.60985e-14 0)
(-9.5122e-14 5.62034e-14 0)
(-8.11217e-14 4.23e-14 0)
(-3.73658e-14 3.2426e-14 0)
(4.23e-14 2.81657e-14 0)
(9.31593e-14 3.75632e-14 0)
(1.12677e-13 5.13661e-14 0)
(1.3759e-13 7.22434e-14 0)
(1.68793e-13 1.04778e-13 0)
(2.05476e-13 1.56828e-13 0)
(2.41157e-13 2.41157e-13 0)
(2.55938e-13 3.74241e-13 0)
(2.12699e-13 5.58406e-13 0)
(8.54636e-14 7.23972e-13 0)
(-8.54636e-14 7.23972e-13 0)
(-2.12699e-13 5.58406e-13 0)
(-2.55938e-13 3.74241e-13 0)
(-2.41157e-13 2.41157e-13 0)
(-2.05476e-13 1.56828e-13 0)
(-1.68793e-13 1.04778e-13 0)
(-1.3759e-13 7.22434e-14 0)
(-1.12677e-13 5.13661e-14 0)
(-9.31593e-14 3.75632e-14 0)
(-4.23e-14 2.81657e-14 0)
(4.67633e-14 2.19769e-14 0)
(1.04322e-13 2.98733e-14 0)
(1.29802e-13 4.19069e-14 0)
(1.64888e-13 6.10427e-14 0)
(2.14043e-13 9.30205e-14 0)
(2.82941e-13 1.49581e-13 0)
(3.74241e-13 2.55938e-13 0)
(4.6683e-13 4.6683e-13 0)
(4.6213e-13 8.82068e-13 0)
(2.08e-13 1.47699e-12 0)
(-2.08e-13 1.47699e-12 0)
(-4.6213e-13 8.82068e-13 0)
(-4.6683e-13 4.6683e-13 0)
(-3.74241e-13 2.55938e-13 0)
(-2.82941e-13 1.49581e-13 0)
(-2.14043e-13 9.30205e-14 0)
(-1.64888e-13 6.10427e-14 0)
(-1.29802e-13 4.19069e-14 0)
(-1.04322e-13 2.98733e-14 0)
(-4.67633e-14 2.19769e-14 0)
(5.01964e-14 1.40272e-14 0)
(1.13089e-13 1.93383e-14 0)
(1.43846e-13 2.76583e-14 0)
(1.88704e-13 4.14072e-14 0)
(2.57331e-13 6.56943e-14 0)
(3.68393e-13 1.124e-13 0)
(5.58406e-13 2.12699e-13 0)
(8.82068e-13 4.6213e-13 0)
(1.22285e-12 1.22285e-12 0)
(6.80381e-13 4.31749e-12 0)
(-6.80381e-13 4.31749e-12 0)
(-1.22285e-12 1.22285e-12 0)
(-8.82068e-13 4.6213e-13 0)
(-5.58406e-13 2.12699e-13 0)
(-3.68393e-13 1.124e-13 0)
(-2.57331e-13 6.56943e-14 0)
(-1.88704e-13 4.14072e-14 0)
(-1.43846e-13 2.76583e-14 0)
(-1.13089e-13 1.93383e-14 0)
(-5.01964e-14 1.40272e-14 0)
(5.20744e-14 4.82714e-15 0)
(1.17953e-13 6.70514e-15 0)
(1.51871e-13 9.69101e-15 0)
(2.02924e-13 1.47299e-14 0)
(2.85036e-13 2.39109e-14 0)
(4.29946e-13 4.24345e-14 0)
(7.23972e-13 8.54636e-14 0)
(1.47699e-12 2.08e-13 0)
(4.31749e-12 6.80381e-13 0)
(3.30264e-12 3.30264e-12 0)
(-3.30264e-12 3.30264e-12 0)
(-4.31749e-12 6.80381e-13 0)
(-1.47699e-12 2.08e-13 0)
(-7.23972e-13 8.54636e-14 0)
(-4.29946e-13 4.24345e-14 0)
(-2.85036e-13 2.39109e-14 0)
(-2.02924e-13 1.47299e-14 0)
(-1.51871e-13 9.69101e-15 0)
(-1.17953e-13 6.70514e-15 0)
(-5.20744e-14 4.82714e-15 0)
(5.20744e-14 -4.82714e-15 0)
(1.17953e-13 -6.70514e-15 0)
(1.51871e-13 -9.69101e-15 0)
(2.02924e-13 -1.47299e-14 0)
(2.85036e-13 -2.39109e-14 0)
(4.29946e-13 -4.24345e-14 0)
(7.23972e-13 -8.54636e-14 0)
(1.47699e-12 -2.08e-13 0)
(4.31749e-12 -6.80381e-13 0)
(3.30264e-12 -3.30264e-12 0)
(-3.30264e-12 -3.30264e-12 0)
(-4.31749e-12 -6.80381e-13 0)
(-1.47699e-12 -2.08e-13 0)
(-7.23972e-13 -8.54636e-14 0)
(-4.29946e-13 -4.24345e-14 0)
(-2.85036e-13 -2.39109e-14 0)
(-2.02924e-13 -1.47299e-14 0)
(-1.51871e-13 -9.69101e-15 0)
(-1.17953e-13 -6.70514e-15 0)
(-5.20744e-14 -4.82714e-15 0)
(5.01964e-14 -1.40272e-14 0)
(1.13089e-13 -1.93383e-14 0)
(1.43846e-13 -2.76583e-14 0)
(1.88704e-13 -4.14072e-14 0)
(2.57331e-13 -6.56943e-14 0)
(3.68393e-13 -1.124e-13 0)
(5.58406e-13 -2.12699e-13 0)
(8.82068e-13 -4.6213e-13 0)
(1.22285e-12 -1.22285e-12 0)
(6.80381e-13 -4.31749e-12 0)
(-6.80381e-13 -4.31749e-12 0)
(-1.22285e-12 -1.22285e-12 0)
(-8.82068e-13 -4.6213e-13 0)
(-5.58406e-13 -2.12699e-13 0)
(-3.68393e-13 -1.124e-13 0)
(-2.57331e-13 -6.56943e-14 0)
(-1.88704e-13 -4.14072e-14 0)
(-1.43846e-13 -2.76583e-14 0)
(-1.13089e-13 -1.93383e-14 0)
(-5.01964e-14 -1.40272e-14 0)
(4.67633e-14 -2.19769e-14 0)
(1.04322e-13 -2.98733e-14 0)
(1.29802e-13 -4.19069e-14 0)
(1.64888e-13 -6.10427e-14 0)
(2.14043e-13 -9.30205e-14 0)
(2.82941e-13 -1.49581e-13 0)
(3.74241e-13 -2.55938e-13 0)
(4.6683e-13 -4.6683e-13 0)
(4.6213e-13 -8.82068e-13 0)
(2.08e-13 -1.47699e-12 0)
(-2.08e-13 -1.47699e-12 0)
(-4.6213e-13 -8.82068e-13 0)
(-4.6683e-13 -4.6683e-13 0)
(-3.74241e-13 -2.55938e-13 0)
(-2.82941e-13 -1.49581e-13 0)
(-2.14043e-13 -9.30205e-14 0)
(-1.64888e-13 -6.10427e-14 0)
(-1.29802e-13 -4.19069e-14 0)
(-1.04322e-13 -2.98733e-14 0)
(-4.67633e-14 -2.19769e-14 0)
(4.23e-14 -2.81657e-14 0)
(9.31593e-14 -3.75632e-14 0)
(1.12677e-13 -5.13661e-14 0)
(1.3759e-13 -7.22434e-14 0)
(1.68793e-13 -1.04778e-13 0)
(2.05476e-13 -1.56828e-13 0)
(2.41157e-13 -2.41157e-13 0)
(2.55938e-13 -3.74241e-13 0)
(2.12699e-13 -5.58406e-13 0)
(8.54636e-14 -7.23972e-13 0)
(-8.54636e-14 -7.23972e-13 0)
(-2.12699e-13 -5.58406e-13 0)
(-2.55938e-13 -3.74241e-13 0)
(-2.41157e-13 -2.41157e-13 0)
(-2.05476e-13 -1.56828e-13 0)
(-1.68793e-13 -1.04778e-13 0)
(-1.3759e-13 -7.22434e-14 0)
(-1.12677e-13 -5.13661e-14 0)
(-9.31593e-14 -3.75632e-14 0)
(-4.23e-14 -2.81657e-14 0)
(3.73658e-14 -3.2426e-14 0)
(8.11217e-14 -4.23e-14 0)
(9.5122e-14 -5.62034e-14 0)
(1.11476e-13 -7.60985e-14 0)
(1.29458e-13 -1.0489e-13 0)
(1.46561e-13 -1.46561e-13 0)
(1.56828e-13 -2.05476e-13 0)
(1.49581e-13 -2.82941e-13 0)
(1.124e-13 -3.68393e-13 0)
(4.24345e-14 -4.29946e-13 0)
(-4.24345e-14 -4.29946e-13 0)
(-1.124e-13 -3.68393e-13 0)
(-1.49581e-13 -2.82941e-13 0)
(-1.56828e-13 -2.05476e-13 0)
(-1.46561e-13 -1.46561e-13 0)
(-1.29458e-13 -1.0489e-13 0)
(-1.11476e-13 -7.60985e-14 0)
(-9.5122e-14 -5.62034e-14 0)
(-8.11217e-14 -4.23e-14 0)
(-3.73658e-14 -3.2426e-14 0)
(3.2426e-14 -3.48779e-14 0)
(6.93818e-14 -4.44481e-14 0)
(7.88784e-14 -5.73445e-14 0)
(8.8904e-14 -7.4799e-14 0)
(9.83302e-14 -9.83302e-14 0)
(1.0489e-13 -1.29458e-13 0)
(1.04778e-13 -1.68793e-13 0)
(9.30205e-14 -2.14043e-13 0)
(6.56943e-14 -2.57331e-13 0)
(2.39109e-14 -2.85036e-13 0)
(-2.39109e-14 -2.85036e-13 0)
(-6.56943e-14 -2.57331e-13 0)
(-9.30205e-14 -2.14043e-13 0)
(-1.04778e-13 -1.68793e-13 0)
(-1.0489e-13 -1.29458e-13 0)
(-9.83302e-14 -9.83302e-14 0)
(-8.8904e-14 -7.4799e-14 0)
(-7.88784e-14 -5.73445e-14 0)
(-6.93818e-14 -4.44481e-14 0)
(-3.2426e-14 -3.48779e-14 0)
(2.77956e-14 -3.58175e-14 0)
(5.86552e-14 -4.45983e-14 0)
(6.47712e-14 -5.59331e-14 0)
(7.04901e-14 -7.04901e-14 0)
(7.4799e-14 -8.8904e-14 0)
(7.60985e-14 -1.11476e-13 0)
(7.22434e-14 -1.3759e-13 0)
(6.10427e-14 -1.64888e-13 0)
(4.14072e-14 -1.88704e-13 0)
(1.47299e-14 -2.02924e-13 0)
(-1.47299e-14 -2.02924e-13 0)
(-4.14072e-14 -1.88704e-13 0)
(-6.10427e-14 -1.64888e-13 0)
(-7.22434e-14 -1.3759e-13 0)
(-7.60985e-14 -1.11476e-13 0)
(-7.4799e-14 -8.8904e-14 0)
(-7.04901e-14 -7.04901e-14 0)
(-6.47712e-14 -5.59331e-14 0)
(-5.86552e-14 -4.45983e-14 0)
(-2.77956e-14 -3.58175e-14 0)
(2.36452e-14 -3.56052e-14 0)
(4.92662e-14 -4.33651e-14 0)
(5.29867e-14 -5.29867e-14 0)
(5.59331e-14 -6.47712e-14 0)
(5.73445e-14 -7.88784e-14 0)
(5.62034e-14 -9.5122e-14 0)
(5.13661e-14 -1.12677e-13 0)
(4.19069e-14 -1.29802e-13 0)
(2.76583e-14 -1.43846e-13 0)
(9.69101e-15 -1.51871e-13 0)
(-9.69101e-15 -1.51871e-13 0)
(-2.76583e-14 -1.43846e-13 0)
(-4.19069e-14 -1.29802e-13 0)
(-5.13661e-14 -1.12677e-13 0)
(-5.62034e-14 -9.5122e-14 0)
(-5.73445e-14 -7.88784e-14 0)
(-5.59331e-14 -6.47712e-14 0)
(-5.29867e-14 -5.29867e-14 0)
(-4.92662e-14 -4.33651e-14 0)
(-2.36452e-14 -3.56052e-14 0)
(2.00356e-14 -3.45868e-14 0)
(4.12736e-14 -4.12736e-14 0)
(4.33651e-14 -4.92662e-14 0)
(4.45983e-14 -5.86552e-14 0)
(4.44481e-14 -6.93818e-14 0)
(4.23e-14 -8.11217e-14 0)
(3.75632e-14 -9.31593e-14 0)
(2.98733e-14 -1.04322e-13 0)
(1.93383e-14 -1.13089e-13 0)
(6.70514e-15 -1.17953e-13 0)
(-6.70514e-15 -1.17953e-13 0)
(-1.93383e-14 -1.13089e-13 0)
(-2.98733e-14 -1.04322e-13 0)
(-3.75632e-14 -9.31593e-14 0)
(-4.23e-14 -8.11217e-14 0)
(-4.44481e-14 -6.93818e-14 0)
(-4.45983e-14 -5.86552e-14 0)
(-4.33651e-14 -4.92662e-14 0)
(-4.12736e-14 -4.12736e-14 0)
(-2.00356e-14 -3.45868e-14 0)
(1.69583e-14 -1.69583e-14 0)
(3.45868e-14 -2.00356e-14 0)
(3.56052e-14 -2.36452e-14 0)
(3.58175e-14 -2.77956e-14 0)
(3.48779e-14 -3.2426e-14 0)
(3.2426e-14 -3.73658e-14 0)
(2.81657e-14 -4.23e-14 0)
(2.19769e-14 -4.67633e-14 0)
(1.40272e-14 -5.01964e-14 0)
(4.82714e-15 -5.20744e-14 0)
(-4.82714e-15 -5.20744e-14 0)
(-1.40272e-14 -5.01964e-14 0)
(-2.19769e-14 -4.67633e-14 0)
(-2.81657e-14 -4.23e-14 0)
(-3.2426e-14 -3.73658e-14 0)
(-3.48779e-14 -3.2426e-14 0)
(-3.58175e-14 -2.77956e-14 0)
(-3.56052e-14 -2.36452e-14 0)
(-3.45868e-14 -2.00356e-14 0)
(-1.69583e-14 -1.69583e-14 0)
)
;

boundaryField
{
    movingWall
    {
        type            fixedValue;
        value           uniform (1 0 0);
    }
    fixedWalls
    {
        type            noSlip;
    }
    frontAndBack
    {
        type            empty;
    }
}


// ************************************************************************* //
