/*--------------------------------*- C++ -*----------------------------------*\
  =========                 |
  \\      /  F ield         | OpenFOAM: The Open Source CFD Toolbox
   \\    /   O peration     | Website:  https://openfoam.org
    \\  /    A nd           | Version:  10
     \\/     M anipulation  |
\*---------------------------------------------------------------------------*/
FoamFile
{
    format      ascii;
    class       volVectorField;
    location    "0.2";
    object      U;
}
// * * * * * * * * * * * * * * * * * * * * * * * * * * * * * * * * * * * * * //

dimensions      [0 1 -1 0 0 0 0];

internalField   nonuniform List<vector> 
100
(
(-1.49889 16.1698 0)
(-4.35564 15.5866 0)
(-6.82412 14.5206 0)
(-8.74582 13.1347 0)
(-10.0687 11.6026 0)
(-2.08203 36.626 0)
(-6.0048 35.1157 0)
(-9.27606 32.3934 0)
(-11.6639 28.9272 0)
(-13.1347 25.1894 0)
(-3.00919 47.1579 0)
(-8.58826 44.6662 0)
(-13.0127 40.3053 0)
(-15.9498 34.9877 0)
(-17.4519 29.5366 0)
(-4.57381 63.0105 0)
(-12.8575 58.595 0)
(-18.9546 51.1998 0)
(-22.4325 42.7236 0)
(-23.6296 34.6147 0)
(-7.42466 88.5074 0)
(-20.399 79.9048 0)
(-28.8841 66.4632 0)
(-32.5349 52.4125 0)
(-32.5696 40.1985 0)
(-13.1765 133.504 0)
(-34.9017 114.391 0)
(-46.4469 87.8568 0)
(-48.6972 63.8028 0)
(-45.5092 45.5092 0)
(-26.5376 224.803 0)
(-66.0459 173.392 0)
(-79.4721 116.207 0)
(-74.8825 74.8825 0)
(-63.8028 48.6972 0)
(-64.5868 458.623 0)
(-143.498 273.894 0)
(-144.957 144.957 0)
(-116.207 79.4721 0)
(-87.8568 46.4469 0)
(-211.267 1340.64 0)
(-379.712 379.712 0)
(-273.894 143.498 0)
(-173.392 66.0459 0)
(-114.391 34.9017 0)
(-1025.51 1025.51 0)
(-1340.64 211.267 0)
(-458.623 64.5868 0)
(-224.803 26.5376 0)
(-133.504 13.1765 0)
(-1025.51 -1025.51 0)
(-1340.64 -211.267 0)
(-458.623 -64.5868 0)
(-224.803 -26.5376 0)
(-133.504 -13.1765 0)
(-211.267 -1340.64 0)
(-379.712 -379.712 0)
(-273.894 -143.498 0)
(-173.392 -66.0459 0)
(-114.391 -34.9017 0)
(-64.5868 -458.623 0)
(-143.498 -273.894 0)
(-144.957 -144.957 0)
(-116.207 -79.4721 0)
(-87.8568 -46.4469 0)
(-26.5376 -224.803 0)
(-66.0459 -173.392 0)
(-79.4721 -116.207 0)
(-74.8825 -74.8825 0)
(-63.8028 -48.6972 0)
(-13.1765 -133.504 0)
(-34.9017 -114.391 0)
(-46.4469 -87.8568 0)
(-48.6972 -63.8028 0)
(-45.5092 -45.5092 0)
(-7.42466 -88.5074 0)
(-20.399 -79.9048 0)
(-28.8841 -66.4632 0)
(-32.5349 -52.4125 0)
(-32.5696 -40.1985 0)
(-4.57381 -63.0105 0)
(-12.8575 -58.595 0)
(-18.9546 -51.1998 0)
(-22.4325 -42.7236 0)
(-23.6296 -34.6147 0)
(-3.00919 -47.1579 0)
(-8.58826 -44.6662 0)
(-13.0127 -40.3053 0)
(-15.9498 -34.9877 0)
(-17.4519 -29.5366 0)
(-2.08203 -36.626 0)
(-6.0048 -35.1157 0)
(-9.27606 -32.3934 0)
(-11.6639 -28.9272 0)
(-13.1347 -25.1894 0)
(-1.49889 -16.1698 0)
(-4.35564 -15.5866 0)
(-6.82412 -14.5206 0)
(-8.74582 -13.1347 0)
(-10.0687 -11.6026 0)
)
;

boundaryField
{
    movingWall
    {
        type            fixedValue;
        value           uniform (1 0 0);
    }
    fixedWalls
    {
        type            noSlip;
    }
    frontAndBack
    {
        type            empty;
    }
    procBoundary2to1
    {
        type            processor;
        value           nonuniform List<vector> 
20
(
(1.49889 16.1698 0)
(2.08203 36.626 0)
(3.00919 47.1579 0)
(4.57381 63.0105 0)
(7.42466 88.5074 0)
(13.1765 133.504 0)
(26.5376 224.803 0)
(64.5868 458.623 0)
(211.267 1340.64 0)
(1025.51 1025.51 0)
(1025.51 -1025.51 0)
(211.267 -1340.64 0)
(64.5868 -458.623 0)
(26.5376 -224.803 0)
(13.1765 -133.504 0)
(7.42466 -88.5074 0)
(4.57381 -63.0105 0)
(3.00919 -47.1579 0)
(2.08203 -36.626 0)
(1.49889 -16.1698 0)
)
;
    }
    procBoundary2to3
    {
        type            processor;
        value           nonuniform List<vector> 
20
(
(-10.8301 10.0687 0)
(-13.8017 21.544 0)
(-17.8062 24.4928 0)
(-23.2261 27.6059 0)
(-30.5328 30.5328 0)
(-40.1985 32.5696 0)
(-52.4125 32.5349 0)
(-66.4632 28.8841 0)
(-79.9048 20.399 0)
(-88.5074 7.42466 0)
(-88.5074 -7.42466 0)
(-79.9048 -20.399 0)
(-66.4632 -28.8841 0)
(-52.4125 -32.5349 0)
(-40.1985 -32.5696 0)
(-30.5328 -30.5328 0)
(-23.2261 -27.6059 0)
(-17.8062 -24.4928 0)
(-13.8017 -21.544 0)
(-10.8301 -10.0687 0)
)
;
    }
}


// ************************************************************************* //
