/*--------------------------------*- C++ -*----------------------------------*\
  =========                 |
  \\      /  F ield         | OpenFOAM: The Open Source CFD Toolbox
   \\    /   O peration     | Website:  https://openfoam.org
    \\  /    A nd           | Version:  10
     \\/     M anipulation  |
\*---------------------------------------------------------------------------*/
FoamFile
{
    format      ascii;
    class       volScalarField;
    location    "234";
    object      epsilon;
}
// * * * * * * * * * * * * * * * * * * * * * * * * * * * * * * * * * * * * * //

dimensions      [0 2 -3 0 0 0 0];

internalField   nonuniform List<scalar> 
12225
(
183.629
91.9029
78.9224
73.065
68.9704
65.5607
62.5803
59.9314
57.5572
55.419
53.4877
51.7399
50.1575
48.7274
47.444
46.3202
45.3343
45.2624
57.956
42.9556
37.4586
34.8537
33.0317
31.5449
30.2616
29.1319
28.1273
27.2284
26.4206
25.6923
25.0329
24.4333
23.8794
23.3632
22.787
22.1877
32.756
30.8225
28.2047
26.4505
25.1005
23.9645
22.9685
22.0825
21.2887
20.5741
19.9286
19.3433
18.81
18.3208
17.8636
17.4285
16.9544
16.4871
23.9256
25.3615
24.2962
23.0586
21.9625
20.9868
20.1067
19.3101
18.5878
17.9321
17.3356
16.7915
16.293
15.8333
15.4024
14.9911
14.5666
14.152
19.8926
22.2827
22.0322
21.2621
20.366
19.5067
18.7017
17.9566
17.2713
16.6426
16.0661
15.5371
15.0499
14.5986
14.1757
13.7733
13.3746
12.9916
17.8
20.2879
20.5256
20.1138
19.4183
18.6686
17.9307
17.2284
16.5707
15.9597
15.3944
14.872
14.3883
13.9388
13.5175
13.1186
12.7338
12.3703
16.6317
18.8816
19.4273
19.2469
18.7686
18.129
17.4617
16.8044
16.1753
15.5821
15.0273
14.5103
14.0289
13.5797
13.1586
12.7616
12.3848
12.0329
15.9419
17.831
18.5379
18.5215
18.2347
17.7145
17.125
16.5199
15.9254
15.3548
14.8142
14.3056
13.8288
13.3819
12.9624
12.568
12.1969
11.8523
15.5112
17.0038
17.7508
17.87
17.707
17.3246
16.8188
16.2743
15.7227
15.1821
14.6623
14.1678
13.7004
13.26
12.8455
12.4559
12.0908
11.7521
15.2264
16.3217
17.017
17.2277
17.1472
16.8909
16.4755
15.9992
15.4991
14.9971
14.506
14.0329
13.5815
13.1534
12.7487
12.3678
12.0108
11.679
15.0303
15.7387
16.3158
16.5623
16.5347
16.3752
16.0527
15.6473
15.2052
14.7498
14.2957
13.852
13.424
13.0149
12.6261
12.2587
11.9134
11.5915
14.9045
15.2738
15.7016
15.926
15.9216
15.8168
15.5704
15.2271
14.8408
14.4332
14.0195
13.6095
13.2098
12.8245
12.456
12.1062
11.7759
11.4669
14.7893
14.8915
15.1269
15.2833
15.2803
15.2008
15.0067
14.7203
14.3882
14.0297
13.6593
13.2871
12.9202
12.5633
12.2197
11.8915
11.5801
11.2875
14.675
14.5322
14.5434
14.5665
14.5333
14.4418
14.2699
14.0349
13.7567
13.4509
13.1301
12.8033
12.4776
12.1577
11.8473
11.5485
11.2632
10.9941
14.5842
14.2056
13.986
13.8413
13.7077
13.5609
13.3835
13.1721
12.9327
12.6728
12.4002
12.1215
11.8418
11.5653
11.295
11.0332
10.7815
10.5432
14.5103
13.9413
13.5102
13.1793
12.9059
12.6636
12.434
12.2056
11.9738
11.7378
11.499
11.2596
11.0219
10.788
10.5596
10.338
10.1243
9.92164
14.4529
13.7514
13.1662
12.6799
12.2689
11.9144
11.6018
11.3193
11.0585
10.8139
10.5821
10.3607
10.1487
9.94527
9.75004
9.56277
9.38342
9.21379
14.4209
13.6522
12.9897
12.4202
11.9283
11.5007
11.1265
10.7961
10.5013
10.2355
9.99352
9.7711
9.56509
9.373
9.19291
9.02335
8.86319
8.71215
14.4304
13.6806
13.0379
12.4891
12.0169
11.6071
11.248
10.9295
10.6436
10.3839
10.1455
9.92472
9.7188
9.52563
9.34361
9.17156
9.00846
8.85255
14.4885
13.8713
13.3812
12.9915
12.6675
12.3861
12.1305
11.889
11.6549
11.4249
11.1982
10.9748
10.7555
10.5411
10.3325
10.1302
9.93483
9.74539
14.5822
14.2042
13.9692
13.8148
13.6739
13.5245
13.3511
13.1476
12.9184
12.6702
12.4097
12.143
11.875
11.6096
11.3494
11.0966
10.8524
10.6168
14.7171
14.72
14.8008
14.8966
14.8836
14.8087
14.6425
14.3967
14.1052
13.7858
13.4517
13.1129
12.7764
12.4472
12.1284
11.822
11.5291
11.25
14.9321
15.3726
15.8445
16.0904
16.0872
15.9801
15.7292
15.3789
14.9857
14.5724
14.1544
13.7417
13.341
12.956
12.5889
12.2409
11.912
11.6019
15.2172
16.288
17.0047
17.2332
17.1608
16.9169
16.5093
16.0378
15.5409
15.0415
14.5528
14.0826
13.635
13.212
12.8141
12.4409
12.0916
11.7651
15.7471
17.4756
18.2591
18.32
18.0992
17.6383
17.0785
16.4915
15.9074
15.342
14.8037
14.2962
13.8207
13.3768
12.9636
12.5793
12.222
11.8899
16.8113
19.1449
19.7169
19.5259
19.0164
18.3466
17.6514
16.9698
16.3195
15.7075
15.1364
14.6058
14.1144
13.6598
13.2393
12.8505
12.4908
12.1576
19.1601
21.7408
21.7286
21.1397
20.2744
19.4164
18.5997
17.8353
17.1265
16.4731
15.8723
15.3202
14.8131
14.3471
13.9183
13.5235
13.1594
12.823
24.8997
26.3216
25.2097
23.8821
22.6806
21.6177
20.6631
19.7986
19.0135
18.2995
17.6492
17.0559
16.5137
16.0176
15.5626
15.1452
14.7605
14.4065
42.1129
36.6611
32.8088
30.5363
28.8422
27.446
26.2308
25.1487
24.1762
23.2978
22.5015
21.7774
21.1174
20.5148
19.9629
19.4585
18.9916
18.5678
125.517
74.9273
64.3987
59.4709
56.0768
53.2988
50.8654
48.6847
46.7127
44.9204
43.2861
41.792
40.4235
39.1682
38.0131
36.9545
35.964
35.0823
0.00929168
0.0151358
0.0306135
0.0445195
0.0559384
0.0655351
0.0757156
0.0862939
0.097731
0.110528
0.125079
0.141704
0.160718
0.182568
0.20779
0.236914
0.27035
0.308266
0.350498
0.396785
0.446789
0.500175
0.556577
0.61563
0.676967
0.740231
0.805162
0.871546
0.939189
1.00794
1.07767
1.14826
1.2196
1.29162
1.36423
1.43736
1.51092
1.58486
1.6591
1.73357
1.8082
1.88291
1.95761
2.03224
2.10669
2.18088
2.25471
2.32807
2.40086
2.47298
2.54431
2.61477
2.68426
2.75276
2.82031
2.88711
2.95235
3.01622
3.07859
3.13939
3.19853
3.25591
3.31145
3.36506
3.41665
3.46614
3.51347
3.55855
3.60134
3.64176
3.67976
3.7153
3.74835
3.77884
3.80679
3.83214
3.85491
3.87506
3.8926
3.90752
3.91982
3.92909
3.93608
3.94094
3.94314
3.94279
3.94001
3.93482
3.9273
3.9175
3.90546
3.89127
3.87498
3.85668
3.83643
3.81429
3.79035
3.76469
3.73737
3.70848
3.67809
3.64628
3.61314
3.57873
3.54314
3.50644
3.46874
3.43014
3.39065
3.35032
3.30924
3.26749
3.22514
3.18226
3.13892
3.09518
3.05111
3.00676
2.9622
2.91747
2.87263
2.82774
2.78283
2.73796
2.69317
2.6485
2.604
2.55969
2.51563
2.47184
2.42837
2.38523
2.34246
2.30007
2.25811
2.21658
2.17551
2.13492
2.09483
2.05527
2.01623
1.97775
1.93982
1.90246
1.86567
1.82947
1.79387
1.75885
1.72444
1.69064
1.65745
1.62487
1.59292
1.56157
1.53085
1.50074
1.47124
1.44235
1.41408
1.38641
1.35935
1.33288
1.30699
1.28168
1.25694
1.23275
1.2091
1.18599
1.16337
1.14123
1.11952
1.09825
1.07745
1.0569
1.03667
1.01603
0.99665
0.973108
0.956556
0.884568
0.0552376
0.034337
0.0352727
0.0403446
0.047409
0.0559858
0.0661774
0.0780358
0.0916465
0.107075
0.124334
0.143364
0.164343
0.187437
0.212728
0.240161
0.269445
0.29999
0.33181
0.36471
0.398539
0.432977
0.467635
0.502364
0.537079
0.571746
0.606371
0.640984
0.675628
0.710353
0.745206
0.780233
0.815467
0.850939
0.886667
0.922663
0.958927
0.995454
1.03223
1.06924
1.10644
1.14382
1.18134
1.21895
1.2566
1.29425
1.33185
1.36934
1.40667
1.44378
1.48063
1.51719
1.55345
1.58944
1.62528
1.66133
1.69678
1.73153
1.7655
1.79863
1.83085
1.8621
1.89231
1.92143
1.94939
1.97615
2.00165
2.02584
2.04868
2.07013
2.09015
2.10871
2.12579
2.14135
2.15538
2.16787
2.17881
2.18819
2.19601
2.20225
2.20691
2.20997
2.21159
2.2118
2.21057
2.20784
2.20367
2.19812
2.19121
2.18299
2.17349
2.16276
2.15085
2.13781
2.12367
2.10851
2.09236
2.07527
2.05729
2.03847
2.01886
1.99852
1.97749
1.95582
1.93357
1.9108
1.88757
1.8639
1.83984
1.81541
1.79067
1.76566
1.74041
1.71497
1.68937
1.66366
1.63787
1.61204
1.58619
1.56036
1.53457
1.50886
1.48325
1.45777
1.43243
1.40727
1.3823
1.35755
1.33302
1.30875
1.28474
1.26102
1.23759
1.21446
1.19166
1.16918
1.14704
1.12526
1.10382
1.08275
1.06205
1.04173
1.02178
1.00221
0.983027
0.964229
0.94582
0.927799
0.910168
0.892925
0.876072
0.859608
0.843533
0.827845
0.812543
0.797623
0.783084
0.768922
0.755135
0.741721
0.728677
0.715997
0.703679
0.691719
0.680112
0.668855
0.657945
0.647378
0.637149
0.627263
0.617707
0.608547
0.599901
0.591724
0.584159
0.577154
0.571573
0.567271
0.56842
0.575542
0.130418
0.0680525
0.0608957
0.0636234
0.0700631
0.0789798
0.0901722
0.103556
0.119013
0.136357
0.15537
0.17586
0.197545
0.220196
0.243629
0.267694
0.292314
0.317548
0.343096
0.368766
0.394377
0.419889
0.44543
0.471028
0.496715
0.522532
0.548522
0.574727
0.601186
0.627932
0.654989
0.682378
0.71011
0.738191
0.766621
0.795396
0.824504
0.853934
0.883665
0.913678
0.943946
0.974441
1.00513
1.03598
1.06696
1.09801
1.12911
1.16022
1.19128
1.22226
1.25313
1.28384
1.31438
1.34471
1.37486
1.40471
1.4341
1.46292
1.49111
1.5186
1.54532
1.57122
1.59623
1.62031
1.64338
1.66541
1.68634
1.70613
1.72474
1.74212
1.75826
1.77311
1.78665
1.79886
1.80973
1.81925
1.8274
1.83419
1.83961
1.84367
1.84636
1.84761
1.84772
1.84655
1.84411
1.8404
1.83547
1.82936
1.82211
1.81374
1.80431
1.79384
1.7824
1.77001
1.75673
1.74261
1.72769
1.71201
1.69563
1.67857
1.6609
1.64264
1.62386
1.6046
1.58489
1.56479
1.54434
1.52358
1.50255
1.48128
1.45979
1.43814
1.41634
1.39444
1.37246
1.35044
1.3284
1.30637
1.28437
1.26244
1.24059
1.21884
1.19722
1.17574
1.15442
1.13328
1.11234
1.0916
1.07108
1.0508
1.03077
1.01099
0.991477
0.972241
0.953286
0.934619
0.916247
0.898175
0.880408
0.862951
0.845806
0.828978
0.812468
0.796277
0.780407
0.76486
0.749637
0.734736
0.720155
0.705895
0.691953
0.678329
0.665023
0.652032
0.639354
0.626986
0.614925
0.603169
0.591715
0.58056
0.569701
0.559136
0.548861
0.538873
0.52917
0.51975
0.51061
0.501749
0.493167
0.484868
0.476852
0.469139
0.461771
0.454772
0.448243
0.442216
0.437162
0.43298
0.432967
0.437828
0.227674
0.107587
0.090952
0.0909657
0.0968246
0.106014
0.117784
0.131782
0.147708
0.165231
0.183996
0.203669
0.223961
0.244659
0.265627
0.286791
0.308121
0.329601
0.351189
0.372861
0.39462
0.416513
0.438582
0.460875
0.483435
0.506298
0.529495
0.553057
0.577005
0.601359
0.626129
0.651326
0.676952
0.703009
0.729493
0.756395
0.783703
0.811402
0.839476
0.867902
0.896656
0.925712
0.955037
0.984598
1.01436
1.04428
1.07432
1.10443
1.13458
1.16471
1.19479
1.22476
1.2546
1.28425
1.31364
1.34266
1.37122
1.39923
1.42662
1.45332
1.47926
1.50437
1.5286
1.55188
1.57415
1.59537
1.61548
1.63444
1.6522
1.66872
1.68398
1.69794
1.71058
1.72188
1.73182
1.7404
1.74762
1.75346
1.75793
1.76105
1.76273
1.76315
1.76234
1.76024
1.75688
1.75229
1.74651
1.73957
1.73151
1.72238
1.71221
1.70105
1.68895
1.67595
1.6621
1.64742
1.63197
1.6158
1.59898
1.58154
1.56353
1.545
1.526
1.50657
1.48675
1.46659
1.44614
1.42543
1.4045
1.38338
1.3621
1.34071
1.31922
1.29768
1.27611
1.25454
1.23299
1.21149
1.19007
1.16875
1.14754
1.12647
1.10555
1.08481
1.06425
1.04389
1.02374
1.00383
0.984144
0.96471
0.945533
0.926621
0.907987
0.889631
0.871559
0.853776
0.836286
0.819093
0.8022
0.78561
0.769326
0.753349
0.737679
0.722317
0.707264
0.692519
0.678082
0.663951
0.650125
0.636602
0.623381
0.610459
0.597835
0.585509
0.573475
0.56173
0.550271
0.539095
0.528199
0.51758
0.507234
0.497159
0.487351
0.477808
0.468526
0.459505
0.450741
0.442233
0.433983
0.425992
0.418266
0.410815
0.403664
0.396843
0.39042
0.38446
0.379249
0.374829
0.373033
0.375129
0.332967
0.149188
0.121407
0.118096
0.122488
0.130909
0.142073
0.155382
0.170413
0.186783
0.204136
0.222156
0.2406
0.259305
0.278179
0.297188
0.316334
0.335636
0.355117
0.37481
0.394745
0.415012
0.435594
0.456546
0.477908
0.499713
0.521987
0.544753
0.568029
0.591828
0.61616
0.641028
0.666435
0.692382
0.718869
0.745879
0.773399
0.801414
0.829904
0.858848
0.888217
0.917983
0.948112
0.978564
1.0093
1.04026
1.07142
1.10271
1.13408
1.16547
1.19683
1.22811
1.25924
1.29015
1.32075
1.35093
1.38063
1.40974
1.4382
1.46592
1.49282
1.51885
1.54392
1.56798
1.59095
1.61279
1.63343
1.65283
1.67095
1.68773
1.70316
1.71719
1.72981
1.74099
1.75073
1.75901
1.76584
1.77122
1.77514
1.77759
1.77858
1.77829
1.77662
1.77361
1.76929
1.76369
1.75685
1.74882
1.73963
1.72934
1.71799
1.70564
1.69232
1.67809
1.66301
1.64712
1.63048
1.61314
1.59515
1.57655
1.55741
1.53776
1.51766
1.49716
1.4763
1.45512
1.43367
1.41199
1.39012
1.3681
1.34596
1.32373
1.30144
1.27913
1.25683
1.23457
1.21236
1.19024
1.16823
1.14635
1.12462
1.10306
1.08169
1.06052
1.03956
1.01884
0.998355
0.978125
0.958158
0.938463
0.919047
0.899916
0.881068
0.862516
0.844268
0.826328
0.808698
0.791381
0.774381
0.757697
0.741331
0.725284
0.709555
0.694143
0.679048
0.664269
0.649804
0.63565
0.621807
0.60827
0.595039
0.582109
0.56948
0.557148
0.545109
0.533358
0.521893
0.510709
0.499804
0.489174
0.478815
0.468724
0.458896
0.449329
0.44002
0.430966
0.422166
0.413617
0.40532
0.397278
0.389494
0.381978
0.374749
0.367834
0.361285
0.355172
0.349682
0.344947
0.34176
0.341941
0.432377
0.188448
0.149316
0.142305
0.144658
0.151675
0.161572
0.173545
0.187101
0.201857
0.217494
0.233755
0.250446
0.267445
0.284687
0.302157
0.319869
0.337846
0.356139
0.374813
0.393931
0.413422
0.433386
0.453861
0.474883
0.496482
0.518685
0.541515
0.564991
0.589131
0.61394
0.639417
0.66556
0.692358
0.719782
0.747853
0.776568
0.805914
0.835871
0.866414
0.897513
0.929133
0.961237
0.993781
1.02671
1.05996
1.09348
1.12721
1.16107
1.19499
1.22889
1.2627
1.29631
1.32964
1.3626
1.39511
1.42707
1.45838
1.48896
1.51873
1.54759
1.57547
1.60228
1.62797
1.65245
1.67566
1.69755
1.71807
1.73715
1.75477
1.77088
1.78545
1.79848
1.80992
1.81978
1.82805
1.83473
1.83983
1.84335
1.84523
1.84564
1.84459
1.84206
1.83808
1.8327
1.82596
1.81791
1.80858
1.79804
1.78633
1.7735
1.75962
1.74474
1.72892
1.71221
1.69467
1.67636
1.65733
1.63765
1.61736
1.59652
1.57519
1.55341
1.53124
1.50872
1.48591
1.46285
1.43959
1.41616
1.3926
1.36896
1.34526
1.32154
1.29783
1.27417
1.25057
1.22708
1.20371
1.18048
1.15743
1.13456
1.11191
1.08947
1.06728
1.04534
1.02366
1.00227
0.981156
0.960344
0.939837
0.919642
0.899767
0.880215
0.860989
0.842094
0.823533
0.805308
0.787421
0.769873
0.752664
0.735794
0.719263
0.70307
0.687212
0.67169
0.656499
0.641638
0.627105
0.612895
0.599006
0.585435
0.572178
0.559225
0.546579
0.534235
0.522191
0.510441
0.498982
0.487809
0.476919
0.466307
0.455969
0.445902
0.436101
0.426565
0.417289
0.408271
0.399508
0.391001
0.382751
0.374763
0.367045
0.359612
0.352489
0.345719
0.339367
0.333562
0.328459
0.324397
0.322915
0.517114
0.222581
0.172887
0.162123
0.16222
0.167574
0.175968
0.186429
0.198413
0.211551
0.225568
0.240253
0.255455
0.271081
0.287073
0.303439
0.320217
0.337462
0.355173
0.37334
0.39196
0.411153
0.43097
0.451441
0.472599
0.494475
0.517098
0.540493
0.564675
0.589627
0.61537
0.641935
0.669339
0.697599
0.726716
0.75666
0.787413
0.81895
0.851245
0.884265
0.91797
0.952314
0.987246
1.02271
1.05864
1.09497
1.13164
1.16856
1.20565
1.24282
1.27998
1.31702
1.35384
1.39035
1.42643
1.46199
1.49691
1.5311
1.56446
1.59688
1.62827
1.65854
1.68761
1.7154
1.74183
1.76682
1.79032
1.81227
1.83263
1.85133
1.86836
1.88368
1.89726
1.9091
1.91919
1.92752
1.93409
1.93893
1.94202
1.94335
1.9431
1.94121
1.93771
1.93265
1.92608
1.91804
1.90858
1.89777
1.88566
1.8723
1.85777
1.84212
1.82541
1.80771
1.78909
1.7696
1.74931
1.72829
1.70659
1.68428
1.66141
1.63804
1.61424
1.59005
1.56553
1.54073
1.5157
1.49048
1.46513
1.43967
1.41415
1.38862
1.36309
1.33762
1.31222
1.28693
1.26178
1.2368
1.212
1.18741
1.16305
1.13894
1.11509
1.09153
1.06826
1.0453
1.02265
1.00034
0.978355
0.956718
0.935431
0.914499
0.893927
0.873718
0.853874
0.834398
0.81529
0.796551
0.778182
0.760182
0.74255
0.725284
0.708382
0.691842
0.675661
0.659837
0.644365
0.629242
0.614465
0.600028
0.585929
0.572162
0.558723
0.545608
0.532811
0.520327
0.508153
0.496284
0.484714
0.473438
0.462454
0.451754
0.441336
0.431196
0.421325
0.411725
0.402391
0.393323
0.384519
0.375981
0.367712
0.35972
0.352018
0.344628
0.337586
0.33095
0.324815
0.319322
0.314631
0.311815
0.582891
0.250184
0.191398
0.176879
0.174937
0.178615
0.185524
0.194548
0.205097
0.216813
0.229448
0.242824
0.256828
0.271424
0.286612
0.302337
0.318559
0.335264
0.352504
0.370352
0.388876
0.408115
0.42811
0.4489
0.470524
0.493015
0.516405
0.540712
0.565935
0.592154
0.619397
0.647661
0.676945
0.707242
0.738554
0.770869
0.804167
0.83842
0.873595
0.90965
0.946537
0.9842
1.02258
1.06159
1.10117
1.14124
1.1817
1.22245
1.26339
1.30442
1.34542
1.38628
1.42688
1.4671
1.50681
1.5459
1.58425
1.62174
1.65825
1.69369
1.72794
1.76091
1.7925
1.82261
1.85118
1.87812
1.90338
1.92688
1.94858
1.96843
1.98641
2.00248
2.01661
2.02881
2.03907
2.04739
2.05377
2.05825
2.06079
2.06148
2.06039
2.0575
2.05288
2.04657
2.03863
2.0291
2.01806
2.00557
1.99168
1.97648
1.96002
1.94238
1.92363
1.90383
1.88307
1.86141
1.83892
1.81566
1.79172
1.76715
1.74202
1.71639
1.69032
1.66387
1.63711
1.61008
1.58284
1.55543
1.52792
1.50032
1.4727
1.44509
1.41753
1.39006
1.3627
1.33549
1.30846
1.28163
1.25503
1.22869
1.20262
1.17684
1.15137
1.12622
1.10142
1.07696
1.05287
1.02914
1.0058
0.982837
0.960269
0.938096
0.916322
0.89495
0.873982
0.853419
0.833261
0.813508
0.794158
0.775211
0.756665
0.738516
0.720763
0.703401
0.686427
0.669837
0.653626
0.637791
0.622326
0.607226
0.592487
0.578102
0.564068
0.550377
0.537025
0.524007
0.511316
0.498947
0.486895
0.475154
0.463719
0.452586
0.441748
0.431201
0.420941
0.410964
0.401266
0.391846
0.382702
0.373834
0.365245
0.356942
0.348935
0.341245
0.333902
0.326957
0.320483
0.314596
0.309381
0.305524
0.628835
0.270884
0.204754
0.186899
0.183088
0.185232
0.190804
0.198573
0.207906
0.218447
0.230006
0.242476
0.255739
0.269664
0.284163
0.299249
0.314969
0.331366
0.348481
0.366354
0.385033
0.404567
0.425003
0.446388
0.468766
0.49218
0.516653
0.542198
0.568921
0.596843
0.625967
0.656309
0.687875
0.720664
0.754669
0.789874
0.826253
0.863775
0.902394
0.94206
0.982711
1.02428
1.06668
1.10982
1.15362
1.19797
1.24275
1.28786
1.33316
1.37852
1.42382
1.46892
1.51368
1.55796
1.60163
1.64454
1.68657
1.72758
1.76745
1.80605
1.84328
1.87901
1.91316
1.94563
1.97633
2.00519
2.03214
2.05711
2.08006
2.10094
2.11972
2.13639
2.15091
2.1633
2.17354
2.18165
2.18764
2.19154
2.19336
2.19318
2.19103
2.18694
2.18098
2.17321
2.16368
2.15247
2.13963
2.12525
2.10939
2.09214
2.07356
2.05374
2.03276
2.01068
1.9876
1.96359
1.93872
1.91306
1.8867
1.85971
1.83215
1.80409
1.7756
1.74675
1.71759
1.68818
1.65857
1.62883
1.599
1.56913
1.53927
1.50944
1.47971
1.45009
1.42063
1.39137
1.36232
1.33352
1.30499
1.27676
1.24885
1.22128
1.19406
1.16721
1.14075
1.11468
1.08902
1.06377
1.03895
1.01455
0.99059
0.967068
0.943986
0.921347
0.899153
0.877402
0.856095
0.835231
0.814808
0.794823
0.775273
0.756155
0.737465
0.719199
0.701352
0.683919
0.666895
0.650275
0.634052
0.618221
0.602776
0.58771
0.573019
0.558695
0.544732
0.531123
0.517863
0.504946
0.492364
0.480112
0.468184
0.456575
0.445277
0.434288
0.4236
0.413211
0.403115
0.393311
0.383797
0.374572
0.36564
0.357004
0.348675
0.34067
0.333014
0.32575
0.318933
0.312659
0.306975
0.302292
0.656157
0.285045
0.213401
0.192749
0.187277
0.188076
0.192486
0.199233
0.207693
0.217508
0.228377
0.240106
0.252597
0.265847
0.279857
0.294633
0.310187
0.326554
0.343775
0.361897
0.380975
0.401063
0.422217
0.444491
0.467945
0.492585
0.518455
0.54568
0.574308
0.604343
0.635808
0.668717
0.703077
0.738886
0.776132
0.814791
0.85483
0.896205
0.938859
0.982724
1.02772
1.07376
1.12075
1.16856
1.21709
1.26621
1.31578
1.36566
1.41569
1.46574
1.51565
1.56525
1.61439
1.66291
1.71066
1.75749
1.80324
1.84777
1.89095
1.93265
1.97274
2.01111
2.04766
2.08228
2.11489
2.14542
2.17379
2.19996
2.22386
2.24547
2.26476
2.28171
2.2963
2.30855
2.31846
2.32605
2.33135
2.33438
2.33518
2.33383
2.33034
2.32478
2.31722
2.30773
2.29638
2.28325
2.2684
2.25192
2.23389
2.2144
2.19352
2.17136
2.14798
2.12347
2.09793
2.07143
2.04405
2.01588
1.98699
1.95747
1.92738
1.89679
1.86579
1.83444
1.80279
1.77092
1.73888
1.70673
1.67452
1.6423
1.61011
1.57801
1.54603
1.51422
1.4826
1.45121
1.42009
1.38926
1.35875
1.32857
1.29877
1.26934
1.24032
1.21171
1.18353
1.1558
1.12851
1.10169
1.07533
1.04945
1.02404
0.999118
0.974677
0.950721
0.92725
0.904263
0.88176
0.859738
0.838194
0.817125
0.796528
0.776397
0.756729
0.737517
0.718756
0.700441
0.682566
0.665123
0.648106
0.631509
0.615325
0.599547
0.584167
0.569179
0.554576
0.540351
0.526495
0.513003
0.499868
0.487082
0.47464
0.462533
0.450758
0.439307
0.428175
0.417357
0.406848
0.396647
0.386749
0.377155
0.367866
0.358887
0.350226
0.341897
0.333921
0.326334
0.319178
0.312528
0.306409
0.301054
0.666744
0.293384
0.217994
0.1951
0.18819
0.187974
0.191652
0.197746
0.205513
0.214544
0.224674
0.235798
0.247854
0.260798
0.274622
0.289335
0.304965
0.321551
0.339144
0.357801
0.377582
0.398554
0.420792
0.444318
0.469137
0.495393
0.523206
0.552636
0.583694
0.616411
0.65081
0.686904
0.724698
0.764182
0.805335
0.848122
0.892495
0.938392
0.985736
1.03444
1.0844
1.1355
1.18761
1.2406
1.29432
1.34861
1.40332
1.45827
1.51329
1.5682
1.62283
1.677
1.73053
1.78324
1.83496
1.88554
1.93481
1.98261
2.02881
2.07326
2.11585
2.15646
2.19497
2.2313
2.26537
2.29709
2.32641
2.35328
2.37765
2.39949
2.4188
2.43555
2.44974
2.4614
2.47053
2.47717
2.48134
2.4831
2.48251
2.47962
2.47444
2.46709
2.45763
2.44614
2.43271
2.4174
2.40031
2.38152
2.36113
2.33923
2.3159
2.29124
2.26534
2.23829
2.21018
2.1811
2.15114
2.12038
2.0889
2.05679
2.02413
1.99099
1.95744
1.92356
1.88941
1.85506
1.82058
1.78601
1.75141
1.71684
1.68234
1.64796
1.61374
1.57973
1.54595
1.51245
1.47926
1.4464
1.4139
1.38179
1.35009
1.31882
1.28799
1.25762
1.22773
1.19833
1.16942
1.14102
1.11313
1.08575
1.0589
1.03257
1.00676
0.981483
0.956729
0.9325
0.908793
0.885605
0.862932
0.840771
0.819117
0.797965
0.777309
0.757142
0.737459
0.718253
0.699516
0.681242
0.663423
0.646052
0.62912
0.61262
0.596545
0.580886
0.565635
0.550785
0.536327
0.522255
0.50856
0.495235
0.482272
0.469665
0.457406
0.44549
0.433909
0.422659
0.411735
0.401133
0.39085
0.380885
0.371239
0.361915
0.35292
0.344265
0.335971
0.328062
0.320572
0.313558
0.307034
0.30112
0.661572
0.295995
0.218965
0.194783
0.187
0.18608
0.188929
0.194255
0.201374
0.209928
0.219694
0.230555
0.242451
0.255356
0.269274
0.284227
0.300256
0.317409
0.33575
0.355363
0.376291
0.398569
0.422204
0.447372
0.474227
0.502853
0.533326
0.565684
0.599941
0.636134
0.674286
0.714403
0.75648
0.800493
0.846403
0.894155
0.943677
0.994879
1.04766
1.10189
1.15745
1.21418
1.27193
1.33053
1.38979
1.44953
1.50956
1.56969
1.6297
1.68942
1.74863
1.80714
1.86475
1.92129
1.97657
2.03041
2.08266
2.13315
2.18174
2.2283
2.2727
2.31484
2.35461
2.39192
2.4267
2.45888
2.48841
2.51526
2.53939
2.56077
2.57941
2.59531
2.60848
2.61893
2.62671
2.63184
2.63438
2.63439
2.63198
2.62706
2.61981
2.6103
2.5986
2.58481
2.569
2.55127
2.53172
2.51043
2.4875
2.46303
2.43711
2.40985
2.38133
2.35166
2.32093
2.28923
2.25665
2.22329
2.18922
2.15454
2.11931
2.08364
2.04758
2.01121
1.97461
1.93783
1.90095
1.86402
1.82709
1.79023
1.75348
1.71689
1.6805
1.64435
1.60848
1.57293
1.53773
1.50291
1.46849
1.4345
1.40097
1.3679
1.33533
1.30326
1.27171
1.24068
1.2102
1.18026
1.15088
1.12205
1.09379
1.06609
1.03896
1.01239
0.986381
0.960939
0.936055
0.911728
0.887952
0.864722
0.842034
0.819881
0.798256
0.777154
0.756566
0.736485
0.716903
0.697812
0.679205
0.661072
0.643405
0.626196
0.609436
0.593117
0.577229
0.561764
0.546715
0.532071
0.517825
0.503969
0.490495
0.477395
0.464661
0.452287
0.440266
0.428592
0.417259
0.406264
0.395602
0.385273
0.375275
0.365612
0.356288
0.347315
0.338706
0.330483
0.32267
0.315311
0.308408
0.302012
0.650166
0.295688
0.218101
0.192913
0.184069
0.182369
0.184654
0.189553
0.196358
0.204697
0.214368
0.225261
0.237329
0.250563
0.264978
0.280618
0.297558
0.315818
0.335434
0.356412
0.37889
0.403026
0.428984
0.456856
0.486757
0.518776
0.552956
0.58931
0.62788
0.668692
0.711754
0.757055
0.804564
0.85423
0.905984
0.959736
1.01538
1.07278
1.13179
1.19227
1.25403
1.31688
1.38063
1.44508
1.51001
1.5752
1.64044
1.70551
1.77018
1.83425
1.89749
1.95971
2.0207
2.08027
2.13824
2.19444
2.2487
2.30088
2.35084
2.39846
2.44362
2.48622
2.52618
2.56341
2.59787
2.62949
2.65824
2.68409
2.70704
2.72706
2.74418
2.7584
2.76975
2.77826
2.78398
2.78696
2.78725
2.78502
2.78014
2.77277
2.76301
2.75094
2.73665
2.72023
2.70177
2.68138
2.65914
2.63516
2.60955
2.58239
2.55379
2.52385
2.49268
2.46036
2.427
2.39269
2.35753
2.3216
2.285
2.24781
2.21011
2.17199
2.13351
2.09477
2.05581
2.01673
1.97757
1.9384
1.89927
1.86025
1.82137
1.78269
1.74425
1.7061
1.66827
1.63079
1.59371
1.55704
1.52081
1.48506
1.4498
1.41506
1.38084
1.34716
1.31405
1.2815
1.24953
1.21815
1.18736
1.15716
1.12757
1.09858
1.07018
1.04239
1.0152
0.98861
0.962611
0.937201
0.912376
0.88813
0.864458
0.841351
0.818804
0.796809
0.775357
0.754441
0.734051
0.71418
0.694818
0.675957
0.657586
0.639698
0.622282
0.605329
0.588831
0.572777
0.557158
0.541966
0.527192
0.512826
0.498861
0.485287
0.472097
0.459284
0.44684
0.434758
0.423033
0.41166
0.400634
0.389954
0.379618
0.369628
0.359988
0.350706
0.341794
0.333268
0.325147
0.317461
0.310207
0.303398
0.630192
0.293079
0.215572
0.18952
0.180035
0.177901
0.179876
0.184596
0.191364
0.199822
0.20978
0.22115
0.233917
0.248086
0.26365
0.280612
0.298937
0.318805
0.340359
0.363762
0.389125
0.416574
0.44625
0.478271
0.512747
0.549699
0.589148
0.631133
0.675671
0.722757
0.772361
0.824431
0.878892
0.935643
0.994564
1.05551
1.11832
1.18282
1.24881
1.31608
1.38442
1.45359
1.52337
1.59351
1.66378
1.73393
1.80373
1.87296
1.94137
2.00875
2.07488
2.13957
2.20262
2.26385
2.32309
2.38018
2.43498
2.48734
2.53716
2.58433
2.62875
2.67035
2.70906
2.74481
2.77758
2.80732
2.83402
2.85767
2.87828
2.89584
2.91039
2.92195
2.93057
2.93628
2.93915
2.93922
2.93672
2.93144
2.92359
2.91326
2.90053
2.8855
2.86826
2.84891
2.82755
2.80426
2.77917
2.75236
2.72395
2.69403
2.6627
2.63007
2.59624
2.56131
2.52538
2.48854
2.45088
2.4125
2.37349
2.33392
2.29389
2.25348
2.21276
2.1718
2.13068
2.08946
2.04821
2.00698
1.96585
1.92485
1.88403
1.84346
1.80316
1.76319
1.72357
1.68435
1.64555
1.60721
1.56935
1.532
1.49518
1.4589
1.42319
1.38806
1.35353
1.31959
1.28627
1.25357
1.2215
1.19005
1.15924
1.12907
1.09952
1.07061
1.04233
1.01468
0.987659
0.961253
0.935461
0.910278
0.885696
0.861708
0.838307
0.815485
0.793232
0.77154
0.750401
0.729804
0.709741
0.690201
0.671175
0.652653
0.634625
0.617081
0.600012
0.583407
0.567257
0.551552
0.536283
0.52144
0.507014
0.492997
0.479379
0.466154
0.453312
0.440848
0.428754
0.417025
0.405658
0.394647
0.383993
0.373695
0.363756
0.354182
0.344983
0.336171
0.327758
0.319768
0.312189
0.305018
0.603998
0.287253
0.211352
0.185305
0.175617
0.173377
0.175404
0.180359
0.187578
0.196753
0.207693
0.220275
0.234409
0.250083
0.267443
0.286613
0.307762
0.330979
0.3564
0.384181
0.414455
0.447349
0.482991
0.521514
0.562906
0.607194
0.654387
0.704464
0.757379
0.813057
0.871396
0.932269
0.995523
1.06098
1.12846
1.19773
1.26857
1.34076
1.41402
1.48813
1.56281
1.63781
1.71288
1.78776
1.8622
1.93596
2.00881
2.08052
2.15088
2.21968
2.28672
2.35184
2.41486
2.47563
2.534
2.58985
2.64306
2.69352
2.74115
2.78586
2.8276
2.8663
2.90193
2.93446
2.96387
2.99014
3.01328
3.03329
3.05021
3.06405
3.07486
3.08267
3.08753
3.08952
3.0887
3.08522
3.07895
3.07008
3.05871
3.04491
3.02878
3.01042
2.98991
2.96736
2.94286
2.91651
2.88843
2.85871
2.82745
2.79475
2.76071
2.72544
2.68904
2.6516
2.61321
2.57398
2.53399
2.49334
2.45211
2.41038
2.36823
2.32575
2.28301
2.24008
2.19703
2.15393
2.11084
2.06781
2.02491
1.98218
1.93968
1.89745
1.85554
1.81399
1.77282
1.73209
1.69181
1.65202
1.61274
1.574
1.53582
1.49822
1.46122
1.42482
1.38905
1.3539
1.3194
1.28555
1.25236
1.21982
1.18794
1.15672
1.12616
1.09626
1.06702
1.03844
1.0105
0.983212
0.956561
0.930542
0.90515
0.880375
0.85621
0.832647
0.809676
0.787289
0.765475
0.744225
0.723529
0.703377
0.683758
0.664663
0.646081
0.628002
0.610415
0.59331
0.576677
0.560506
0.544786
0.529509
0.514664
0.500241
0.486234
0.472631
0.459427
0.446612
0.43418
0.422126
0.410444
0.39913
0.388182
0.3776
0.367384
0.35754
0.348074
0.338995
0.330313
0.322042
0.314168
0.306681
0.575099
0.279828
0.206281
0.18078
0.171412
0.169635
0.172423
0.178444
0.186991
0.197652
0.21032
0.225059
0.24197
0.261172
0.282763
0.306892
0.333726
0.363401
0.396058
0.431824
0.470815
0.513119
0.558792
0.607821
0.660262
0.716028
0.774982
0.836969
0.901813
0.969312
1.03924
1.11136
1.18541
1.26113
1.33823
1.41644
1.49548
1.57506
1.65491
1.73476
1.81434
1.8934
1.9717
2.04901
2.12509
2.19975
2.27278
2.34401
2.41325
2.48035
2.54516
2.60755
2.6674
2.7246
2.77904
2.83065
2.87935
2.92506
2.96775
3.00737
3.04389
3.07727
3.10752
3.13462
3.15859
3.17943
3.19716
3.21182
3.22344
3.23206
3.23773
3.24052
3.24039
3.23775
3.23219
3.22404
3.21334
3.20018
3.18465
3.16683
3.14681
3.12468
3.10054
3.07449
3.04662
3.01703
2.98583
2.95309
2.91894
2.88345
2.84673
2.80888
2.76999
2.73015
2.68945
2.64799
2.60586
2.56313
2.51989
2.47622
2.43219
2.38789
2.34339
2.29875
2.25404
2.20932
2.16465
2.1201
2.0757
2.03152
1.9876
1.94399
1.90073
1.85785
1.81539
1.77339
1.73188
1.69088
1.65042
1.61053
1.57121
1.5325
1.49441
1.45695
1.42014
1.38398
1.34848
1.31366
1.27951
1.24604
1.21325
1.18114
1.14972
1.11898
1.08891
1.05952
1.0308
1.00275
0.975355
0.948612
0.922515
0.897055
0.872224
0.848014
0.824414
0.801416
0.779009
0.757185
0.735931
0.715239
0.695097
0.675495
0.656422
0.637868
0.619821
0.602272
0.585209
0.568622
0.5525
0.536834
0.521614
0.50683
0.492473
0.478533
0.465002
0.451873
0.439138
0.42679
0.414825
0.403237
0.392024
0.381184
0.370717
0.360627
0.350917
0.341594
0.332665
0.324138
0.315997
0.308235
0.546945
0.271739
0.201265
0.177124
0.169057
0.168827
0.173279
0.181231
0.192278
0.206329
0.223391
0.243546
0.26696
0.293815
0.324275
0.358505
0.396649
0.438818
0.485087
0.535487
0.590018
0.648623
0.711234
0.777585
0.84727
0.91999
0.99544
1.07328
1.15318
1.23477
1.31771
1.40166
1.4863
1.5713
1.65637
1.74122
1.82559
1.90922
1.99189
2.07337
2.15347
2.23199
2.30876
2.38363
2.45645
2.52707
2.59539
2.66129
2.72467
2.78544
2.84352
2.89884
2.95133
3.00094
3.04762
3.09133
3.13205
3.16974
3.2044
3.23602
3.26459
3.29012
3.31261
3.33209
3.34859
3.36213
3.37274
3.38044
3.38537
3.38745
3.38681
3.38366
3.37768
3.36923
3.3583
3.34497
3.32932
3.31143
3.29138
3.26925
3.24513
3.2191
3.19125
3.16167
3.13045
3.0977
3.06349
3.0279
2.99104
2.95299
2.91385
2.87369
2.83262
2.79071
2.74806
2.70473
2.66082
2.61641
2.57156
2.52636
2.48087
2.43517
2.38932
2.34339
2.29744
2.25153
2.20571
2.16004
2.11456
2.06934
2.0244
1.9798
1.93557
1.89175
1.84837
1.80547
1.76308
1.72122