/*--------------------------------*- C++ -*----------------------------------*\
  =========                 |
  \\      /  F ield         | OpenFOAM: The Open Source CFD Toolbox
   \\    /   O peration     | Website:  https://openfoam.org
    \\  /    A nd           | Version:  10
     \\/     M anipulation  |
\*---------------------------------------------------------------------------*/
FoamFile
{
    format      ascii;
    class       volScalarField;
    location    "234";
    object      k;
}
// * * * * * * * * * * * * * * * * * * * * * * * * * * * * * * * * * * * * * //

dimensions      [0 2 -2 0 0 0 0];

internalField   nonuniform List<scalar> 
12225
(
0.233345
0.116785
0.10029
0.0928467
0.0876435
0.0833105
0.0795232
0.0761572
0.0731401
0.070423
0.0679687
0.0657477
0.0637369
0.0619194
0.0602885
0.0588604
0.0576075
0.057516
0.315612
0.236007
0.21459
0.203237
0.194944
0.187969
0.181823
0.176317
0.171345
0.166833
0.162727
0.158982
0.155561
0.15243
0.149557
0.146893
0.144394
0.141601
0.347026
0.295217
0.273454
0.26009
0.249869
0.241131
0.233335
0.226278
0.219846
0.213963
0.208569
0.203613
0.19905
0.194838
0.190928
0.187255
0.183757
0.18002
0.363261
0.332135
0.313063
0.299365
0.288244
0.278485
0.269647
0.26156
0.254128
0.247285
0.240974
0.235146
0.229753
0.224746
0.220071
0.215663
0.21146
0.207255
0.372812
0.357363
0.342528
0.329786
0.318555
0.308318
0.298852
0.290071
0.281924
0.274366
0.267353
0.260844
0.254792
0.24915
0.243862
0.238871
0.234133
0.229563
0.378779
0.374552
0.364833
0.35403
0.343385
0.333161
0.323438
0.314257
0.305633
0.29756
0.290018
0.282976
0.276397
0.27024
0.264454
0.258995
0.253838
0.248954
0.38223
0.385808
0.381204
0.373052
0.363612
0.353873
0.344257
0.334968
0.326107
0.317717
0.309812
0.302382
0.295403
0.288845
0.282668
0.276843
0.271359
0.266208
0.383611
0.392603
0.392077
0.387205
0.379455
0.370638
0.361497
0.352403
0.343555
0.33506
0.326971
0.319308
0.312066
0.305229
0.298773
0.292684
0.286958
0.281595
0.383449
0.395389
0.398443
0.39626
0.390861
0.383344
0.375026
0.366434
0.357863
0.34949
0.341413
0.333689
0.326336
0.319357
0.312745
0.3065
0.300625
0.295116
0.382192
0.394938
0.400634
0.400537
0.397544
0.391726
0.384574
0.376775
0.368745
0.36073
0.352876
0.34528
0.337985
0.331016
0.324383
0.318101
0.312176
0.306606
0.3803
0.391926
0.398994
0.400848
0.399453
0.395576
0.389757
0.383021
0.375804
0.368402
0.361005
0.353737
0.34668
0.339884
0.333379
0.327189
0.321329
0.315796
0.378355
0.387573
0.394584
0.397612
0.397286
0.395017
0.39055
0.384864
0.378512
0.371827
0.365029
0.358251
0.351592
0.34512
0.338882
0.332906
0.327218
0.321824
0.376503
0.382498
0.388424
0.391827
0.392271
0.391069
0.388006
0.383399
0.378009
0.372142
0.366029
0.359833
0.35367
0.347622
0.341746
0.336092
0.330682
0.325529
0.37473
0.376462
0.380083
0.382787
0.383506
0.382912
0.381012
0.377553
0.373255
0.368394
0.363186
0.357797
0.352348
0.346931
0.341613
0.336442
0.331453
0.326671
0.37273
0.370582
0.370676
0.371175
0.371129
0.370522
0.369039
0.366481
0.363199
0.359378
0.355184
0.350754
0.3462
0.341608
0.337043
0.332556
0.328187
0.323971
0.371139
0.365255
0.361464
0.358976
0.357003
0.355169
0.353184
0.350838
0.348117
0.345068
0.34176
0.338264
0.33465
0.330976
0.327291
0.323634
0.320039
0.316548
0.369958
0.361271
0.354286
0.348746
0.344243
0.340458
0.337145
0.334095
0.33117
0.328291
0.325417
0.322534
0.319644
0.316755
0.313879
0.31103
0.308223
0.305481
0.369316
0.359172
0.350474
0.343113
0.336883
0.331589
0.327057
0.32312
0.319633
0.31648
0.313572
0.310842
0.308243
0.305742
0.303319
0.300958
0.298656
0.296416
0.369502
0.359745
0.351466
0.344534
0.338709
0.333768
0.329522
0.325797
0.322452
0.31938
0.316504
0.313767
0.311134
0.308579
0.306088
0.303653
0.301267
0.298918
0.370696
0.363759
0.358758
0.355129
0.352267
0.349797
0.34744
0.344988
0.342364
0.339556
0.336582
0.33348
0.330288
0.327045
0.323784
0.320534
0.317317
0.314145
0.372683
0.37037
0.370289
0.370566
0.37048
0.369887
0.368479
0.366085
0.362999
0.35939
0.35541
0.351191
0.346838
0.342434
0.33804
0.333703
0.329456
0.325321
0.375599
0.379068
0.383909
0.387086
0.387882
0.387129
0.384889
0.381059
0.376402
0.371212
0.365708
0.360061
0.354393
0.348789
0.343308
0.337989
0.332857
0.327935
0.378755
0.388351
0.395549
0.398435
0.397932
0.395421
0.390633
0.384752
0.378248
0.371445
0.364589
0.357799
0.351157
0.344721
0.338527
0.332595
0.326938
0.321566
0.381901
0.394279
0.400226
0.400143
0.397283
0.391611
0.3846
0.376936
0.369017
0.361095
0.353308
0.345762
0.338521
0.331616
0.325062
0.318856
0.312996
0.307479
0.383411
0.393688
0.395141
0.391702
0.384913
0.37662
0.367743
0.358764
0.34994
0.341413
0.333252
0.325505
0.318185
0.311287
0.304797
0.2987
0.292978
0.287625
0.381712
0.384449
0.379881
0.371236
0.361443
0.351451
0.341663
0.332237
0.323262
0.31478
0.306796
0.299308
0.292298
0.285744
0.279618
0.273893
0.268543
0.263563
0.375352
0.364935
0.352089
0.339755
0.328383
0.31785
0.308037
0.298877
0.290336
0.282382
0.27498
0.268096
0.261696
0.255743
0.250204
0.245048
0.240242
0.235791
0.363151
0.330201
0.310878
0.296826
0.28536
0.275349
0.266306
0.258029
0.250416
0.243399
0.236919
0.23093
0.225389
0.220258
0.2155
0.211086
0.206978
0.203199
0.338596
0.272956
0.249921
0.236557
0.226522
0.218069
0.21057
0.203792
0.19762
0.191978
0.186804
0.18205
0.177674
0.173641
0.169916
0.166476
0.163275
0.160372
0.277118
0.165425
0.14218
0.131301
0.123807
0.117674
0.112301
0.107487
0.103133
0.0991761
0.0955678
0.0922693
0.089248
0.0864765
0.0839263
0.0815891
0.0794022
0.0774558
3.23454e-05
0.000240268
0.000485623
0.000705718
0.000886054
0.00103702
0.001197
0.00136294
0.00154208
0.00174229
0.0019697
0.00222926
0.00252584
0.00286632
0.00325896
0.00371196
0.00423164
0.00482056
0.00547591
0.00619348
0.00696776
0.00779333
0.00866431
0.00957484
0.0105191
0.0114913
0.0124874
0.0135038
0.0145375
0.0155861
0.0166473
0.0177194
0.0188007
0.0198898
0.0209853
0.0220862
0.023191
0.0242989
0.0254085
0.0265188
0.0276286
0.0287367
0.0298419
0.0309429
0.0320381
0.0331264
0.0342061
0.0352758
0.0363337
0.0373783
0.038408
0.0394214
0.0404171
0.0413949
0.0423552
0.043301
0.0442206
0.0451168
0.0459874
0.0468317
0.0476482
0.0484356
0.0491929
0.0499186
0.0506117
0.0512711
0.0518958
0.0524848
0.0530375
0.0535529
0.0540306
0.0544698
0.0548703
0.0552314
0.0555533
0.0558355
0.0560783
0.0562813
0.0564449
0.056569
0.0566539
0.056694
0.0566995
0.0566737
0.0566087
0.0565064
0.0563685
0.0561957
0.0559891
0.0557497
0.0554782
0.0551761
0.0548443
0.0544842
0.0540967
0.0536831
0.0532445
0.0527823
0.0522975
0.0517916
0.0512655
0.0507208
0.0501584
0.0495798
0.048986
0.0483781
0.0477579
0.0471268
0.046485
0.0458333
0.0451731
0.0445055
0.0438315
0.0431523
0.0424689
0.041782
0.0410927
0.0404018
0.0397101
0.0390185
0.0383276
0.0376381
0.0369509
0.0362664
0.0355854
0.0349084
0.0342358
0.0335684
0.0329065
0.0322507
0.0316013
0.0309588
0.0303234
0.0296956
0.0290756
0.0284637
0.0278601
0.027265
0.0266788
0.0261016
0.0255336
0.0249749
0.0244256
0.0238858
0.0233555
0.0228349
0.0223239
0.0218226
0.021331
0.0208491
0.0203769
0.0199144
0.0194616
0.0190185
0.0185849
0.0181608
0.0177461
0.0173408
0.0169447
0.0165579
0.0161801
0.0158113
0.0154511
0.0150996
0.0147564
0.0144215
0.0140947
0.0137756
0.013464
0.0131596
0.0128615
0.0125703
0.0122859
0.0120058
0.0117308
0.0114528
0.0111904
0.0108831
0.010655
0.00981375
0.000192273
0.00136659
0.00242794
0.0032129
0.00384824
0.00440329
0.00491638
0.00543247
0.00597716
0.00656271
0.007193
0.00786789
0.0085881
0.00935773
0.0101812
0.0110617
0.0120003
0.0129951
0.0140412
0.0151334
0.0162663
0.0174349
0.0186344
0.0198605
0.0211097
0.0223792
0.0236669
0.024971
0.0262901
0.027623
0.0289685
0.0303257
0.0316935
0.0330708
0.0344568
0.0358502
0.03725
0.0386551
0.0400643
0.0414762
0.0428897
0.0443034
0.0457157
0.0471252
0.0485303
0.0499293
0.0513204
0.0527017
0.0540712
0.0554268
0.0567662
0.0580869
0.0593861
0.0606608
0.0619071
0.0631203
0.0643052
0.0654617
0.0665883
0.0676833
0.068745
0.0697717
0.0707617
0.0717134
0.0726252
0.0734957
0.0743234
0.0751072
0.075846
0.0765386
0.0771843
0.0777822
0.0783318
0.0788324
0.0792838
0.0796858
0.0800382
0.080341
0.0805944
0.0807986
0.0809541
0.0810586
0.0811098
0.0811226
0.0810913
0.0810124
0.0808884
0.0807207
0.0805106
0.0802591
0.0799677
0.0796375
0.0792702
0.0788669
0.0784293
0.0779587
0.0774565
0.0769243
0.0763637
0.075776
0.0751627
0.0745254
0.0738656
0.0731848
0.0724844
0.071766
0.0710313
0.0702817
0.0695179
0.0687411
0.0679527
0.067154
0.0663462
0.0655307
0.0647085
0.0638808
0.0630487
0.0622131
0.061375
0.0605354
0.0596952
0.0588552
0.0580163
0.0571791
0.0563445
0.0555131
0.0546856
0.0538626
0.0530447
0.0522324
0.0514263
0.0506269
0.0498345
0.0490496
0.0482726
0.0475039
0.0467437
0.0459924
0.0452505
0.044518
0.0437952
0.0430822
0.0423794
0.0416867
0.0410044
0.0403325
0.0396712
0.0390205
0.0383805
0.0377513
0.0371329
0.0365255
0.0359289
0.0353433
0.0347686
0.0342047
0.0336516
0.0331094
0.0325779
0.032057
0.0315467
0.0310469
0.0305576
0.0300787
0.02961
0.0291514
0.0287028
0.028264
0.0278346
0.0274146
0.0270038
0.0266009
0.0262041
0.025814
0.0254302
0.0250519
0.024684
0.0243032
0.0240127
0.0231668
0.000453896
0.00277622
0.00440721
0.00555723
0.00650247
0.00735661
0.00817895
0.00900579
0.00985773
0.0107439
0.0116666
0.0126252
0.01362
0.014652
0.0157229
0.0168336
0.0179846
0.0191755
0.0204057
0.0216734
0.0229764
0.0243118
0.025677
0.0270697
0.0284879
0.0299298
0.0313936
0.0328777
0.0343807
0.0359009
0.037437
0.0389876
0.0405513
0.0421267
0.0437126
0.0453076
0.0469105
0.04852
0.0501346
0.0517532
0.0533742
0.0549961
0.0566173
0.0582363
0.0598512
0.0614602
0.0630614
0.0646526
0.0662317
0.0677965
0.0693446
0.0708736
0.0723811
0.0738646
0.0753217
0.0767506
0.0781495
0.0795165
0.0808495
0.0821461
0.0834043
0.0846218
0.0857965
0.0869265
0.0880098
0.0890446
0.0900292
0.0909622
0.091842
0.0926676
0.0934377
0.0941515
0.0948081
0.0954069
0.0959476
0.0964297
0.0968532
0.097218
0.0975244
0.0977725
0.0979628
0.0980954
0.0981657
0.0981856
0.0981542
0.0980677
0.097928
0.0977368
0.0974954
0.0972053
0.0968679
0.0964849
0.0960579
0.0955886
0.0950787
0.0945298
0.0939438
0.0933223
0.0926671
0.0919799
0.0912626
0.0905167
0.0897442
0.0889467
0.088126
0.0872837
0.0864216
0.0855414
0.0846444
0.0837321
0.0828059
0.0818672
0.0809176
0.0799583
0.0789908
0.0780163
0.077036
0.0760511
0.0750627
0.0740719
0.0730797
0.0720872
0.0710951
0.0701044
0.0691159
0.0681305
0.0671488
0.0661716
0.0651995
0.0642331
0.0632731
0.06232
0.0613743
0.0604365
0.059507
0.0585863
0.0576746
0.0567724
0.0558801
0.0549978
0.054126
0.0532647
0.0524143
0.0515749
0.0507467
0.0499298
0.0491244
0.0483306
0.0475484
0.0467781
0.0460196
0.0452731
0.0445385
0.0438159
0.0431052
0.0424065
0.0417197
0.0410448
0.0403819
0.0397308
0.0390915
0.0384638
0.0378479
0.0372435
0.0366506
0.0360691
0.0354988
0.0349397
0.0343915
0.0338542
0.0333277
0.0328115
0.0323049
0.0318078
0.0313206
0.0308446
0.0303851
0.029931
0.0295939
0.0288734
0.000792415
0.00422658
0.00634568
0.00778813
0.00895819
0.0100065
0.0110076
0.0120034
0.0130171
0.0140598
0.0151349
0.0162426
0.0173824
0.0185548
0.0197609
0.0210021
0.0222801
0.0235956
0.0249488
0.0263388
0.0277645
0.0292242
0.0307163
0.0322389
0.0337903
0.0353687
0.0369722
0.0385992
0.0402482
0.0419175
0.0436056
0.0453112
0.0470329
0.0487692
0.0505191
0.052281
0.0540537
0.0558358
0.0576259
0.0594225
0.0612241
0.0630291
0.0648356
0.0666418
0.0684458
0.0702454
0.0720385
0.0738226
0.0755956
0.0773547
0.0790974
0.0808212
0.0825232
0.0842008
0.0858513
0.087472
0.0890601
0.090613
0.0921279
0.0936021
0.095033
0.0964179
0.0977545
0.0990403
0.100273
0.101451
0.102572
0.103633
0.104635
0.105574
0.10645
0.107262
0.108009
0.10869
0.109304
0.109852
0.110333
0.110747
0.111094
0.111375
0.11159
0.11174
0.11182
0.111841
0.111803
0.111702
0.111542
0.111323
0.111047
0.110716
0.110331
0.109894
0.109408
0.108873
0.108293
0.107668
0.107001
0.106294
0.105549
0.104768
0.103953
0.103106
0.102228
0.101322
0.10039
0.099434
0.0984552
0.0974558
0.0964375
0.0954019
0.0943507
0.0932855
0.0922078
0.0911194
0.0900215
0.0889157
0.0878034
0.0866858
0.0855642
0.0844398
0.0833138
0.0821871
0.081061
0.0799362
0.0788138
0.0776946
0.0765794
0.0754691
0.0743643
0.0732658
0.0721741
0.07109
0.0700139
0.0689464
0.067888
0.0668391
0.0658002
0.0647715
0.0637536
0.0627466
0.061751
0.0607669
0.0597946
0.0588344
0.0578864
0.0569508
0.0560277
0.0551173
0.0542196
0.0533348
0.052463
0.0516042
0.0507585
0.0499258
0.0491063
0.0482999
0.0475067
0.0467265
0.0459594
0.0452053
0.0444642
0.043736
0.0430206
0.042318
0.0416282
0.0409509
0.0402861
0.0396338
0.0389938
0.038366
0.0377506
0.0371473
0.0365561
0.0359772
0.0354113
0.0348608
0.0343307
0.0338185
0.0334084
0.0327615
0.00115909
0.00560134
0.00814546
0.00983759
0.0111887
0.012379
0.0134969
0.0145922
0.0156937
0.0168168
0.0179691
0.0191535
0.0203713
0.0216237
0.0229118
0.0242371
0.0256009
0.0270039
0.0284464
0.0299279
0.0314474
0.0330039
0.0345957
0.0362213
0.0378792
0.0395675
0.0412849
0.0430297
0.0448006
0.0465959
0.0484145
0.050255
0.0521159
0.0539961
0.0558942
0.0578088
0.0597384
0.0616816
0.0636368
0.0656023
0.0675764
0.0695571
0.0715424
0.0735302
0.0755181
0.0775037
0.0794845
0.0814578
0.0834207
0.0853703
0.0873038
0.0892178
0.0911094
0.0929753
0.0948121
0.0966167
0.0983856
0.100116
0.101804
0.103447
0.105041
0.106585
0.108074
0.109507
0.11088
0.112191
0.113439
0.114621
0.115735
0.11678
0.117754
0.118656
0.119485
0.120241
0.120922
0.121529
0.12206
0.122517
0.1229
0.123209
0.123444
0.123607
0.123693
0.123713
0.123665
0.123549
0.123366
0.123118
0.122807
0.122435
0.122003
0.121514
0.120969
0.120372
0.119723
0.119026
0.118282
0.117494
0.116663
0.115793
0.114885
0.113942
0.112966
0.111958
0.110922
0.109859
0.108772
0.107661
0.10653
0.10538
0.104213
0.103031
0.101835
0.100627
0.0994093
0.0981827
0.0969491
0.0957097
0.0944661
0.0932195
0.0919712
0.0907223
0.089474
0.0882273
0.0869833
0.0857428
0.0845069
0.0832763
0.0820518
0.0808342
0.0796242
0.0784224
0.0772295
0.076046
0.0748724
0.0737092
0.0725569
0.0714158
0.0702864
0.069169
0.068064
0.0669715
0.065892
0.0648255
0.0637723
0.0627327
0.0617066
0.0606944
0.059696
0.0587116
0.0577413
0.0567852
0.0558433
0.0549157
0.0540023
0.0531031
0.0522183
0.0513476
0.0504913
0.049649
0.048821
0.048007
0.047207
0.046421
0.0456489
0.0448907
0.0441461
0.0434153
0.042698
0.0419945
0.0413047
0.0406288
0.039967
0.0393198
0.0386885
0.0380758
0.0374864
0.0369232
0.0364417
0.0358043
0.00150543
0.00681129
0.00970565
0.011606
0.0131047
0.0144046
0.015606
0.0167659
0.017919
0.0190862
0.0202794
0.0215054
0.0227678
0.0240688
0.0254099
0.0267923
0.028217
0.0296842
0.031194
0.032746
0.0343395
0.0359733
0.0376461
0.0393566
0.0411035
0.0428855
0.0447012
0.0465494
0.0484288
0.0503382
0.0522763
0.0542419
0.0562335
0.0582499
0.0602897
0.0623513
0.0644332
0.0665337
0.0686511
0.0707833
0.0729282
0.0750837
0.0772474
0.0794166
0.0815887
0.0837608
0.0859298
0.0880926
0.0902459
0.0923862
0.09451
0.0966137
0.0986936
0.100746
0.102767
0.104752
0.106699
0.108602
0.110459
0.112267
0.11402
0.115718
0.117355
0.118929
0.120437
0.121877
0.123247
0.124543
0.125764
0.126909
0.127975
0.128962
0.129868
0.130693
0.131436
0.132097
0.132675
0.133171
0.133585
0.133918
0.13417
0.134343
0.134433
0.134449
0.13439
0.134257
0.13405
0.133773
0.133427
0.133013
0.132535
0.131994
0.131393
0.130735
0.13002
0.129253
0.128435
0.127568
0.126656
0.125701
0.124705
0.123671
0.1226
0.121496
0.120361
0.119197
0.118007
0.116792
0.115554
0.114296
0.11302
0.111728
0.110421
0.109101
0.107771
0.106431
0.105083
0.10373
0.102372
0.101012
0.0996492
0.0982862
0.0969241
0.0955639
0.0942067
0.0928536
0.0915055
0.0901634
0.088828
0.0875002
0.0861807
0.0848702
0.0835694
0.0822789
0.0809992
0.0797309
0.0784744
0.0772301
0.0759986
0.0747801
0.0735749
0.0723835
0.071206
0.0700427
0.0688938
0.0677596
0.0666401
0.0655354
0.0644459
0.0633714
0.0623122
0.0612682
0.0602396
0.0592264
0.0582286
0.0572462
0.0562792
0.0553275
0.0543913
0.0534703
0.0525646
0.0516742
0.0507989
0.0499387
0.0490936
0.0482635
0.0474485
0.0466483
0.0458631
0.0450929
0.044338
0.0435985
0.0428749
0.0421681
0.0414795
0.0408122
0.0401705
0.0395599
0.0390141
0.0383625
0.00180077
0.00780372
0.0109727
0.0130401
0.0146581
0.0160464
0.0173136
0.0185225
0.0197125
0.020909
0.0221282
0.0233801
0.0246706
0.0260033
0.0273804
0.028803
0.030272
0.0317875
0.0333497
0.0349579
0.0366113
0.038309
0.0400501
0.0418337
0.0436587
0.0455242
0.0474291
0.0493725
0.0513532
0.0533702
0.0554222
0.0575081
0.0596264
0.061776
0.0639551
0.0661623
0.0683958
0.0706536
0.0729335
0.0752334
0.0775508
0.0798829
0.082227
0.0845799
0.0869384
0.0892991
0.0916585
0.0940126
0.0963578
0.0986898
0.101005
0.103298
0.105566
0.107804
0.110007
0.112171
0.114293
0.116367
0.11839
0.120358
0.122267
0.124113
0.125893
0.127603
0.129242
0.130805
0.13229
0.133695
0.135017
0.136256
0.137409
0.138474
0.139452
0.140341
0.14114
0.14185
0.14247
0.143001
0.143442
0.143795
0.144061
0.14424
0.144331
0.144342
0.14427
0.144118
0.143887
0.143579
0.143197
0.142743
0.142219
0.141628
0.140971
0.140253
0.139475
0.138639
0.13775
0.136808
0.135818
0.134781
0.133701
0.132579
0.131419
0.130223
0.128994
0.127734
0.126446
0.125131
0.123793
0.122433
0.121054
0.119657
0.118245
0.116819
0.115382
0.113936
0.112481
0.11102
0.109555
0.108087
0.106617
0.105146
0.103677
0.10221
0.100747
0.099288
0.0978347
0.0963879
0.0949486
0.0935175
0.0920956
0.0906835
0.0892819
0.0878915
0.0865128
0.0851465
0.0837929
0.0824526
0.081126
0.0798135
0.0785155
0.0772322
0.0759639
0.0747109
0.0734734
0.0722517
0.0710458
0.0698559
0.0686822
0.0675248
0.0663836
0.0652589
0.0641507
0.0630589
0.0619836
0.0609249
0.0598826
0.0588569
0.0578476
0.0568548
0.0558783
0.0549182
0.0539743
0.0530467
0.0521354
0.0512401
0.0503611
0.0494982
0.0486516
0.0478213
0.0470076
0.0462109
0.0454318
0.0446714
0.0439315
0.0432148
0.0425255
0.0418698
0.0412672
0.0405932
0.0020301
0.00856333
0.0119351
0.0141296
0.0158411
0.0173016
0.0186242
0.0198753
0.0210974
0.0223191
0.0235596
0.0248314
0.0261429
0.0274988
0.0289024
0.0303556
0.0318591
0.0334131
0.0350175
0.0366719
0.0383759
0.040129
0.0419305
0.0437801
0.0456769
0.0476203
0.0496096
0.051644
0.0537226
0.0558443
0.0580082
0.0602132
0.062458
0.064741
0.0670606
0.0694149
0.0718019
0.0742194
0.0766647
0.0791352
0.0816279
0.0841397
0.086667
0.0892064
0.0917538
0.0943053
0.0968566
0.0994034
0.101941
0.104465
0.10697
0.109453
0.111906
0.114327
0.11671
0.119049
0.121342
0.123582
0.125765
0.127888
0.129945
0.131934
0.13385
0.135689
0.13745
0.139128
0.140721
0.142227
0.143643
0.144967
0.146199
0.147336
0.148378
0.149323
0.150172
0.150925
0.151581
0.15214
0.152603
0.152972
0.153247
0.153429
0.153518
0.153519
0.153433
0.15326
0.153003
0.152664
0.152246
0.151751
0.151181
0.15054
0.14983
0.149053
0.148213
0.147313
0.146355
0.145341
0.144276
0.143162
0.142001
0.140797
0.139552
0.138269
0.13695
0.1356
0.134219
0.13281
0.131377
0.12992
0.128444
0.126949
0.125438
0.123912
0.122375
0.120828
0.119273
0.117711
0.116145
0.114575
0.113004
0.111433
0.109863
0.108296
0.106733
0.105175
0.103623
0.102078
0.100541
0.099013
0.097495
0.0959877
0.0944917
0.0930078
0.0915364
0.0900784
0.0886341
0.087204
0.0857886
0.0843884
0.0830036
0.0816346
0.0802817
0.0789451
0.0776251
0.0763219
0.0750357
0.0737666
0.0725147
0.0712802
0.0700631
0.0688635
0.0676815
0.066517
0.0653701
0.0642408
0.0631291
0.0620349
0.0609583
0.0598992
0.0588576
0.0578334
0.0568265
0.055837
0.0548648
0.0539099
0.0529722
0.0520519
0.051149
0.0502638
0.0493965
0.0485476
0.0477179
0.0469086
0.0461214
0.0453594
0.0446262
0.0439277
0.0432743
0.0425728
0.00219033
0.00910043
0.0126092
0.014894
0.0166756
0.0181938
0.0195636
0.020853
0.0221058
0.0233525
0.0246141
0.0259053
0.027236
0.0286127
0.0300393
0.0315181
0.0330502
0.0346365
0.0362772
0.0379724
0.0397222
0.0415263
0.0433848
0.0452972
0.0472635
0.0492832
0.0513559
0.0534809
0.0556575
0.0578851
0.0601628
0.0624892
0.064863
0.0672826
0.069746
0.0722512
0.0747956
0.0773767
0.0799913
0.0826362
0.0853079
0.0880025
0.0907161
0.0934442
0.0961824
0.0989258
0.10167
0.104409
0.107138
0.109851
0.112544
0.115211
0.117846
0.120444
0.123
0.125508
0.127963
0.13036
0.132695
0.134963
0.137159
0.139279
0.14132
0.143278
0.145149
0.146931
0.148621
0.150216
0.151714
0.153114
0.154413
0.155612
0.156708
0.157701
0.158591
0.159377
0.160061
0.160641
0.16112
0.161498
0.161776
0.161956
0.162039
0.162027
0.161923
0.161727
0.161442
0.161071
0.160616
0.16008
0.159466
0.158776
0.158013
0.15718
0.156281
0.155318
0.154295
0.153213
0.152077
0.150889
0.149653
0.148371
0.147046
0.145682
0.14428
0.142844
0.141377
0.139881
0.138359
0.136813
0.135245
0.133658
0.132055
0.130437
0.128807
0.127166
0.125517
0.123861
0.1222
0.120537
0.118872
0.117207
0.115543
0.113883
0.112227
0.110576
0.108932
0.107295
0.105668
0.10405
0.102442
0.100846
0.0992622
0.0976911
0.0961335
0.0945899
0.0930611
0.0915474
0.0900494
0.0885674
0.0871019
0.0856531
0.0842215
0.0828072
0.0814105
0.0800316
0.0786708
0.077328
0.0760036
0.0746975
0.07341
0.0721409
0.0708904
0.0696586
0.0684454
0.0672508
0.0660748
0.0649174
0.0637786
0.0626583
0.0615565
0.0604732
0.0594082
0.0583616
0.0573334
0.0563235
0.0553319
0.0543589
0.0534044
0.0524687
0.0515522
0.0506555
0.0497793
0.048925
0.0480944
0.0472902
0.0465158
0.0457765
0.0450771
0.044346
0.00228565
0.00943813
0.0130269
0.0153692
0.0171997
0.0187619
0.0201709
0.0214947
0.0227776
0.0240506
0.0253357
0.0266487
0.0280002
0.0293977
0.0308462
0.032349
0.0339081
0.0355251
0.0372008
0.038936
0.040731
0.0425864
0.0445023
0.0464791
0.0485168
0.0506153
0.0527744
0.0549937
0.0572729
0.0596113
0.0620079
0.0644614
0.0669702
0.0695324
0.0721458
0.0748078
0.0775156
0.0802657
0.0830547
0.0858786
0.0887331
0.0916138
0.0945157
0.0974338
0.100363
0.103297
0.106231
0.109159
0.112074
0.114972
0.117845
0.120689
0.123496
0.126261
0.128978
0.131642
0.134247
0.136788
0.139259
0.141657
0.143976
0.146213
0.148363
0.150423
0.152389
0.154259
0.156029
0.157698
0.159264
0.160724
0.162078
0.163323
0.16446
0.165489
0.166407
0.167217
0.167918
0.168511
0.168996
0.169376
0.169651
0.169822
0.169892
0.169864
0.169738
0.169516
0.169201
0.168796
0.168304
0.167727
0.167068
0.166331
0.165517
0.164631
0.163676
0.162654
0.161569
0.160424
0.159222
0.157966
0.15666
0.155306
0.153908
0.152468
0.15099
0.149476
0.14793
0.146353
0.14475
0.143121
0.141471
0.1398
0.138112
0.136409
0.134693
0.132967
0.131232
0.12949
0.127743
0.125993
0.124241
0.12249
0.120741
0.118995
0.117253
0.115518
0.113789
0.112068
0.110357
0.108656
0.106966
0.105288
0.103623
0.101972
0.100335
0.0987122
0.0971054
0.0955146
0.0939403
0.0923829
0.0908428
0.0893205
0.0878161
0.0863301
0.0848626
0.0834138
0.081984
0.0805733
0.0791819
0.0778098
0.0764572
0.0751241
0.0738105
0.0725165
0.0712421
0.0699873
0.0687521
0.0675365
0.0663404
0.0651638
0.0640066
0.0628688
0.0617504
0.0606514
0.0595716
0.0585112
0.0574703
0.0564487
0.0554469
0.054465
0.0535034
0.0525627
0.0516439
0.0507482
0.0498774
0.0490341
0.0482212
0.0474433
0.0467018
0.0459406
0.00232263
0.00960519
0.0132249
0.0155966
0.0174568
0.0190503
0.0204914
0.0218471
0.0231605
0.0244618
0.0257729
0.0271099
0.0284847
0.0299056
0.0313787
0.0329082
0.0344973
0.036148
0.0378622
0.0396412
0.0414861
0.0433978
0.0453772
0.0474249
0.0495411
0.051726
0.0539797
0.0563022
0.0586933
0.0611521
0.0636775
0.066268
0.0689217
0.0716362
0.0744088
0.0772363
0.0801152
0.0830415
0.0860108
0.0890184
0.0920591
0.0951276
0.0982182
0.101325
0.104442
0.107562
0.11068
0.113788
0.116881
0.119951
0.122991
0.125997
0.12896
0.131875
0.134736
0.137536
0.140271
0.142934
0.145522
0.148028
0.150448
0.152779
0.155016
0.157156
0.159196
0.161132
0.162963
0.164685
0.166298
0.1678
0.169189
0.170465
0.171627
0.172675
0.173608
0.174427
0.175133
0.175727
0.176208
0.17658
0.176843
0.176999
0.17705
0.177
0.176849
0.176597
0.176249
0.175809
0.175278
0.174661
0.173958
0.173175
0.172314
0.171377
0.170369
0.169293
0.168151
0.166948
0.165686
0.164368
0.162999
0.16158
0.160116
0.158608
0.157062
0.155478
0.153861
0.152212
0.150536
0.148834
0.147109
0.145363
0.1436
0.141821
0.140029
0.138226
0.136413
0.134594
0.13277
0.130943
0.129114
0.127285
0.125459
0.123635
0.121817
0.120004
0.118199
0.116403
0.114616
0.11284
0.111076
0.109324
0.107585
0.105861
0.104151
0.102458
0.10078
0.0991189
0.0974751
0.0958491
0.0942412
0.0926518
0.0910812
0.0895297
0.0879976
0.0864851
0.0849924
0.0835197
0.0820671
0.0806347
0.0792226
0.077831
0.0764598
0.075109
0.0737787
0.0724689
0.0711796
0.0699107
0.0686622
0.0674342
0.0662264
0.0650389
0.0638717
0.0627247
0.061598
0.0604915
0.0594053
0.0583396
0.0572945
0.0562703
0.0552675
0.0542868
0.0533289
0.0523952
0.0514874
0.0506079
0.0497592
0.0489451
0.048165
0.0473744
0.00230462
0.00960374
0.0132191
0.0156016
0.017482
0.0191019
0.0205727
0.0219593
0.0233037
0.0246355
0.0259758
0.0273414
0.0287448
0.0301951
0.0316994
0.033263
0.0348898
0.036583
0.0383452
0.0401783
0.0420843
0.0440645
0.0461199
0.0482514
0.0504597
0.0527456
0.0551093
0.0575509
0.0600698
0.062665
0.065335
0.0680779
0.0708911
0.0737716
0.0767161
0.0797204
0.0827802
0.0858904
0.0890459
0.0922408
0.0954692
0.0987246
0.102
0.10529
0.108586
0.111882
0.11517
0.118444
0.121695
0.124918
0.128105
0.131249
0.134344
0.137383
0.14036
0.14327
0.146106
0.148863
0.151536
0.154121
0.156613
0.159009
0.161304
0.163495
0.16558
0.167556
0.16942
0.171171
0.172807
0.174327
0.175729
0.177014
0.178181
0.179229
0.180159
0.180972
0.181668
0.182249
0.182715
0.183068
0.183309
0.183441
0.183466
0.183389
0.183206
0.182921
0.182539
0.182062
0.181492
0.180834
0.18009
0.179263
0.178356
0.177373
0.176317
0.175191
0.173999
0.172744
0.171428
0.170056
0.168631
0.167156
0.165634
0.164068
0.162462
0.160817
0.159139
0.157428
0.155689
0.153923
0.152134
0.150324
0.148496
0.146651
0.144793
0.142923
0.141044
0.139158
0.137267
0.135372
0.133476
0.13158
0.129685
0.127795
0.125909
0.124029
0.122157
0.120294
0.11844
0.116598
0.114768
0.11295
0.111147
0.109358
0.107584
0.105827
0.104086
0.102363
0.100657
0.0989697
0.0973011
0.0956517
0.0940218
0.0924117
0.0908217
0.089252
0.0877029
0.0861744
0.0846669
0.0831803
0.0817148
0.0802704
0.0788473
0.0774454
0.0760647
0.0747053
0.0733672
0.0720502
0.0707545
0.06948
0.0682265
0.0669941
0.0657828
0.0645926
0.0634233
0.0622752
0.0611482
0.0600424
0.0589582
0.0578958
0.0568557
0.0558385
0.0548451
0.0538768
0.0529352
0.0520224
0.0511406
0.0502929
0.0494775
0.048659
0.0022649
0.00954554
0.0131307
0.0155059
0.0173876
0.0190155
0.0205002
0.0219052
0.0232721
0.0246305
0.0260034
0.0274052
0.0288464
0.0303365
0.0318839
0.0334948
0.0351744
0.0369266
0.0387547
0.0406612
0.0426482
0.0447175
0.0468705
0.0491088
0.0514334
0.053845
0.0563439
0.0589296
0.0616012
0.064357
0.0671948
0.0701119
0.0731047
0.0761694
0.0793014
0.0824955
0.0857461
0.0890472
0.0923924
0.0957748
0.0991873
0.102623
0.106073
0.109532
0.11299
0.116441
0.119876
0.123289
0.126671
0.130016
0.133316
0.136565
0.139756
0.142882
0.145937
0.148917
0.151815
0.154627
0.157348
0.159973
0.162498
0.164921
0.167237
0.169445
0.17154
0.173522
0.175387
0.177135
0.178765
0.180275
0.181664
0.182933
0.184082
0.185109
0.186017
0.186805
0.187474
0.188027
0.188463
0.188785
0.188995
0.189094
0.189086
0.188976
0.188755
0.188434
0.188014
0.187498
0.18689
0.186192
0.185408
0.18454
0.183592
0.182567
0.181468
0.180299
0.179063
0.177763
0.176402
0.174984
0.173513
0.17199
0.17042
0.168806
0.16715
0.165456
0.163727
0.161965
0.160174
0.158357
0.156515
0.154652
0.152769
0.150871
0.148958
0.147033
0.145099
0.143157
0.14121
0.139259
0.137307
0.135354
0.133403
0.131456
0.129513
0.127577
0.125648
0.123728
0.121818
0.119919
0.118033
0.116159
0.1143
0.112455
0.110627
0.108814
0.107019
0.105241
0.103482
0.101742
0.10002
0.0983187
0.096637
0.0949757
0.093335
0.0917152
0.0901165
0.0885392
0.0869832
0.0854489
0.0839363
0.0824455
0.0809765
0.0795294
0.0781042
0.0767009
0.0753195
0.07396
0.0726224
0.0713066
0.0700125
0.0687403
0.0674898
0.066261
0.0650539
0.0638686
0.0627052
0.0615638
0.0604447
0.0593481
0.0582746
0.0572247
0.0561994
0.0551999
0.0542276
0.0532845
0.0523724
0.0514938
0.0506466
0.0498021
0.0021953
0.00939771
0.012929
0.0152848
0.017164
0.0188015
0.0203055
0.0217373
0.023137
0.0245323
0.0259429
0.0273861
0.0288753
0.0304208
0.0320309
0.0337122
0.0354701
0.0373088
0.0392321
0.0412431
0.0433443
0.0455379
0.0478257
0.050209
0.0526887
0.0552651
0.0579377
0.0607052
0.0635656
0.0665161
0.0695533
0.072673
0.0758703
0.0791399
0.0824758
0.0858713
0.0893195
0.0928131
0.0963445
0.0999057
0.103489
0.107086
0.110688
0.114288
0.117877
0.121448
0.124993
0.128503
0.131973
0.135394
0.138759
0.142064
0.1453
0.148463
0.151546
0.154545
0.157455
0.160271
0.162989
0.165606
0.168118
0.170522
0.172815
0.174995
0.17706
0.179008
0.180838
0.182548
0.184137
0.185605
0.186952
0.188177
0.189281
0.190264
0.191127
0.19187
0.192495
0.193003
0.193396
0.193674
0.193841
0.193898
0.19385
0.193697
0.193436
0.193074
0.192614
0.19206
0.191413
0.190677
0.189855
0.18895
0.187965
0.186904
0.185769
0.184563
0.183291
0.181955
0.180558
0.179104
0.177595
0.176036
0.174429
0.172777
0.171084
0.169352
0.167585
0.165785
0.163955
0.162097
0.160215
0.158312
0.156389
0.154448
0.152494
0.150527
0.14855
0.146565
0.144575
0.14258
0.140584
0.138587
0.136591
0.134599
0.132611
0.130629
0.128655
0.126689
0.124734
0.122789
0.120857
0.118938
0.117033
0.115142
0.113268
0.11141
0.10957
0.107747
0.105943
0.104158
0.102393
0.100647
0.098922
0.0972174
0.0955338
0.0938715
0.0922307
0.0906117
0.0890145
0.0874394
0.0858865
0.0843558
0.0828474
0.0813614
0.0798978
0.0784567
0.077038
0.0756417
0.0742677
0.0729162
0.0715869
0.07028
0.0689954
0.0677331
0.066493
0.0652753
0.0640801
0.0629075
0.0617577
0.0606311
0.0595282
0.0584495
0.057396
0.0563687
0.0553691
0.0543987
0.0534593
0.0525529
0.0516769
0.0508089
0.00210401
0.00917507
0.0126434
0.0149753
0.0168506
0.0184981
0.0200241
0.0214888
0.0229315
0.02438
0.0258555
0.0273735
0.0289422
0.0305748
0.0322811
0.0340692
0.0359459
0.0379166
0.0399849
0.0421537
0.0444256
0.0468022
0.0492846
0.0518733
0.0545682
0.0573679
0.0602704
0.0632726
0.0663706
0.0695596
0.0728343
0.0761884
0.0796152
0.0831074
0.0866572
0.0902567
0.0938976
0.0975713
0.101269
0.104983