/*--------------------------------*- C++ -*----------------------------------*\
  =========                 |
  \\      /  F ield         | OpenFOAM: The Open Source CFD Toolbox
   \\    /   O peration     | Website:  https://openfoam.org
    \\  /    A nd           | Version:  10
     \\/     M anipulation  |
\*---------------------------------------------------------------------------*/
FoamFile
{
    format      ascii;
    class       volScalarField;
    location    "234";
    object      nut;
}
// * * * * * * * * * * * * * * * * * * * * * * * * * * * * * * * * * * * * * //

dimensions      [0 2 -1 0 0 0 0];

internalField   nonuniform List<scalar> 
12225
(
2.66869e-05
1.33563e-05
1.14698e-05
1.06186e-05
1.00235e-05
9.52794e-06
9.0948e-06
8.70983e-06
8.36477e-06
8.05402e-06
7.77332e-06
7.5193e-06
7.28933e-06
7.08147e-06
6.89494e-06
6.7316e-06
6.58829e-06
6.57781e-06
0.000154686
0.0001167
0.000110639
0.00010666
0.000103545
0.000100806
9.83214e-05
9.60424e-05
9.39413e-05
9.19994e-05
9.02024e-05
8.85393e-05
8.70023e-05
8.55858e-05
8.43013e-05
8.31208e-05
8.23478e-05
8.13325e-05
0.000330884
0.000254482
0.000238611
0.000230173
0.000223864
0.000218363
0.00021334
0.000208679
0.00020433
0.000200262
0.000196456
0.000192896
0.000189574
0.000186486
0.000183659
0.000181071
0.000179245
0.000176905
0.000496384
0.000391468
0.00036305
0.000349793
0.000340472
0.000332583
0.000325457
0.00031886
0.000312694
0.000306908
0.000301471
0.000296366
0.000291583
0.000287116
0.000282996
0.000279229
0.000276275
0.000273171
0.000628828
0.000515814
0.000479266
0.000460364
0.000448441
0.000438586
0.000429807
0.000421724
0.000414173
0.000407081
0.000400407
0.000394126
0.000388223
0.000382693
0.00037756
0.000372849
0.000368884
0.000365077
0.000725427
0.000622345
0.000583628
0.000560825
0.000546503
0.000535107
0.00052508
0.0005159
0.000507344
0.000499306
0.000491731
0.000484588
0.000477859
0.000471536
0.000465636
0.000460193
0.000455406
0.000450923
0.000790595
0.000709489
0.000673204
0.00065076
0.000633995
0.000621673
0.000610832
0.000600932
0.00059171
0.00058304
0.000574855
0.000567123
0.000559822
0.000552943
0.000546494
0.000540512
0.000535107
0.000530049
0.000830777
0.000777989
0.000746319
0.000728534
0.000710665
0.000697935
0.000686786
0.000676572
0.000667028
0.000658028
0.000649507
0.000641437
0.000633797
0.000626576
0.000619782
0.000613443
0.00060762
0.000602133
0.000853125
0.000827458
0.000804932
0.000790823
0.000776502
0.000763405
0.000752613
0.000742562
0.000733077
0.000724067
0.000715488
0.000707333
0.000699582
0.000692231
0.000685288
0.000678776
0.000672725
0.000666981
0.000863393
0.000860074
0.000848896
0.000838107
0.000829509
0.000817628
0.000807908
0.000798563
0.00078957
0.000780907
0.000772574
0.000764606
0.000756988
0.000749727
0.000742836
0.000736341
0.000730252
0.000724432
0.000866016
0.000878383
0.000878149
0.000873132
0.000868517
0.000860035
0.000851692
0.000843817
0.000835938
0.000828133
0.00082047
0.000812999
0.000805782
0.000798849
0.000792229
0.000785952
0.000780022
0.000774315
0.000864414
0.000885118
0.00089244
0.000893418
0.0008922
0.000887882
0.000881647
0.000875466
0.000868852
0.000862108
0.000855392
0.00084874
0.000842218
0.000835881
0.000829774
0.000823909
0.000818317
0.000812894
0.000862641
0.000884222
0.000897645
0.000904098
0.000906325
0.000905493
0.000902887
0.000898728
0.000893798
0.000888405
0.000882766
0.000877031
0.000871306
0.000865668
0.000860178
0.000854912
0.000849873
0.000844933
0.000861196
0.000877716
0.000893989
0.000905321
0.000910799
0.000913729
0.000915587
0.000914087
0.000911466
0.000908061
0.000904138
0.000899896
0.000895479
0.000890998
0.000886533
0.000882139
0.000877858
0.000873584
0.000857331
0.000870065
0.000884176
0.000895822
0.000904333
0.000911135
0.000915838
0.000917676
0.000918002
0.000917216
0.000915626
0.000913467
0.000910918
0.000908115
0.000905161
0.000902135
0.000899095
0.000895947
0.000854358
0.000861254
0.000870383
0.000879997
0.000888789
0.000896507
0.000902887
0.0009076
0.000910876
0.000912988
0.000914165
0.000914604
0.000914467
0.000913891
0.000912983
0.000911832
0.000910512
0.000908945
0.0008523
0.000854201
0.000858002
0.000863269
0.000869298
0.000875583
0.000881759
0.000887487
0.000892585
0.000896967
0.000900642
0.000903658
0.000906079
0.000907975
0.000909415
0.000910465
0.000911194
0.000911536
0.000851228
0.000850444
0.000851052
0.000853072
0.000856291
0.000860438
0.000865228
0.000870367
0.000875592
0.000880693
0.00088552
0.000889975
0.000894004
0.000897584
0.000900715
0.000903416
0.000905721
0.000907651
0.000851525
0.000851385
0.000852706
0.000855415
0.000859214
0.000863788
0.000868832
0.000874047
0.000879192
0.000884095
0.000888643
0.00089277
0.000896445
0.000899666
0.000902443
0.000904802
0.000906764
0.0009084
0.000853599
0.000858524
0.000865666
0.000873685
0.000881647
0.000889079
0.00089562
0.000900958
0.000905132
0.000908263
0.000910497
0.00091198
0.000912845
0.000913207
0.000913163
0.000912793
0.000912157
0.000911388
0.000857231
0.000869158
0.00088339
0.000894603
0.0009034
0.000910456
0.000915274
0.0009174
0.000918004
0.00091747
0.000916097
0.00091412
0.00091172
0.000909034
0.000906162
0.000903179
0.000900143
0.000897164
0.000862714
0.000878558
0.000896218
0.000905258
0.000909776
0.000910829
0.000910541
0.000907749
0.000903994
0.000899614
0.000894818
0.000889807
0.000884713
0.000879625
0.000874599
0.000869677
0.000864893
0.000860332
0.00086465
0.000882965
0.000888715
0.000887955
0.00088589
0.000880609
0.000873121
0.00086632
0.000859247
0.00085212
0.000845198
0.000838452
0.000831874
0.000825481
0.000819292
0.000813322
0.000807589
0.000802145
0.000862602
0.000858979
0.000847783
0.000836196
0.000827762
0.000815889
0.000806363
0.00079732
0.000788605
0.00078018
0.000771977
0.00076404
0.000756411
0.000749111
0.000742141
0.000735497
0.000729181
0.000723234
0.00084018
0.000798207
0.000769606
0.00075375
0.000736731
0.000723755
0.00071266
0.000702422
0.000692836
0.000683785
0.000675178
0.000667019
0.000659285
0.000651944
0.00064497
0.00063835
0.00063208
0.00062621
0.000780033
0.00069481
0.000658716
0.00063523
0.000618294
0.000605923
0.000595195
0.00058541
0.000576296
0.000567738
0.000559654
0.000552015
0.000544795
0.000537964
0.000531505
0.000525393
0.000519614
0.000514235
0.000661796
0.000551314
0.000513471
0.000491447
0.00047869
0.000468292
0.000459135
0.000450761
0.00044297
0.000435654
0.000428754
0.00042224
0.000416092
0.000410286
0.000404805
0.000399626
0.000394736
0.000390218
0.000476676
0.000372809
0.000345027
0.000332027
0.000323127
0.000315646
0.000308894
0.000302653
0.000296829
0.000291367
0.000286233
0.000281404
0.000276862
0.000272589
0.000268569
0.00026478
0.00026121
0.000257945
0.000245014
0.000182903
0.000171339
0.000164929
0.000160116
0.000155938
0.000152133
0.000148628
0.000145384
0.000142374
0.000139574
0.000136968
0.00013454
0.000132275
0.000130163
0.000128186
0.000126333
0.000124663
5.50642e-05
3.28705e-05
2.82516e-05
2.60898e-05
2.46009e-05
2.33822e-05
2.23146e-05
2.1358e-05
2.04929e-05
1.97066e-05
1.89897e-05
1.83343e-05
1.77339e-05
1.71832e-05
1.66765e-05
1.62121e-05
1.57776e-05
1.53908e-05
1.01338e-08
3.43266e-07
6.93311e-07
1.00683e-06
1.26314e-06
1.47688e-06
1.70313e-06
1.9374e-06
2.1899e-06
2.47178e-06
2.79161e-06
3.15634e-06
3.57264e-06
4.05011e-06
4.60018e-06
5.23432e-06
5.96121e-06
6.78439e-06
7.69963e-06
8.70074e-06
9.77971e-06
1.09287e-05
1.21391e-05
1.34025e-05
1.47106e-05
1.60551e-05
1.74301e-05
1.88306e-05
2.02521e-05
2.16911e-05
2.31444e-05
2.46095e-05
2.60839e-05
2.75657e-05
2.90527e-05
3.05435e-05
3.20361e-05
3.35292e-05
3.50208e-05
3.65097e-05
3.79939e-05
3.94719e-05
4.09419e-05
4.24022e-05
4.38506e-05
4.52856e-05
4.67047e-05
4.81061e-05
4.94874e-05
5.08466e-05
5.21814e-05
5.349e-05
5.47708e-05
5.60231e-05
5.72477e-05
5.84488e-05
5.96108e-05
6.07372e-05
6.18256e-05
6.28747e-05
6.38828e-05
6.48485e-05
6.57701e-05
6.6646e-05
6.74752e-05
6.8256e-05
6.89876e-05
6.96686e-05
7.02983e-05
7.08758e-05
7.14007e-05
7.1872e-05
7.22898e-05
7.26534e-05
7.29632e-05
7.32187e-05
7.34206e-05
7.35686e-05
7.36635e-05
7.37053e-05
7.36948e-05
7.36248e-05
7.35084e-05
7.33509e-05
7.31421e-05
7.28843e-05
7.25802e-05
7.22309e-05
7.18382e-05
7.14033e-05
7.09277e-05
7.04131e-05
6.98613e-05
6.92739e-05
6.86526e-05
6.79992e-05
6.73151e-05
6.66024e-05
6.58626e-05
6.50976e-05
6.4309e-05
6.34986e-05
6.2668e-05
6.18191e-05
6.09533e-05
6.00722e-05
5.91781e-05
5.82729e-05
5.73568e-05
5.64311e-05
5.54976e-05
5.45576e-05
5.36127e-05
5.26643e-05
5.17135e-05
5.07616e-05
4.98098e-05
4.88591e-05
4.79106e-05
4.69652e-05
4.60241e-05
4.50879e-05
4.41576e-05
4.3234e-05
4.23177e-05
4.14096e-05
4.05102e-05
3.96201e-05
3.87399e-05
3.78703e-05
3.70116e-05
3.61643e-05
3.53287e-05
3.45053e-05
3.36942e-05
3.28958e-05
3.21104e-05
3.13381e-05
3.05792e-05
2.98339e-05
2.91023e-05
2.83844e-05
2.76804e-05
2.69903e-05
2.6314e-05
2.56516e-05
2.50031e-05
2.43683e-05
2.37474e-05
2.31401e-05
2.25464e-05
2.19664e-05
2.13998e-05
2.08465e-05
2.03063e-05
1.97792e-05
1.92649e-05
1.87633e-05
1.82742e-05
1.77976e-05
1.73331e-05
1.68805e-05
1.64395e-05
1.601e-05
1.55916e-05
1.51842e-05
1.47873e-05
1.44007e-05
1.40241e-05
1.36569e-05
1.32983e-05
1.29489e-05
1.26083e-05
1.22741e-05
1.1947e-05
1.16187e-05
1.13081e-05
1.09543e-05
1.06817e-05
9.79899e-06
6.02342e-08
4.89507e-06
1.50411e-05
2.30277e-05
2.8113e-05
3.11688e-05
3.28718e-05
3.40364e-05
3.50846e-05
3.62009e-05
3.74518e-05
3.88615e-05
4.03911e-05
4.20463e-05
4.38545e-05
4.5855e-05
4.81017e-05
5.06635e-05
5.34759e-05
5.65153e-05
5.97514e-05
6.31851e-05
6.68289e-05
7.06648e-05
7.46737e-05
7.88368e-05
8.31355e-05
8.75522e-05
9.20702e-05
9.66739e-05
0.000101349
0.000106082
0.00011086
0.000115674
0.000120512
0.000125367
0.00013023
0.000135094
0.000139952
0.0001448
0.00014963
0.000154439
0.00015922
0.00016397
0.000168683
0.000173354
0.000177978
0.000182549
0.000187061
0.000191505
0.000195873
0.000200151
0.000204323
0.000208361
0.000212224
0.000215836
0.000219335
0.000222734
0.000226032
0.000229226
0.000232313
0.000235288
0.000238148
0.00024089
0.000243511
0.000246006
0.000248374
0.000250612
0.000252716
0.000254687
0.000256521
0.000258218
0.000259776
0.000261195
0.000262474
0.000263615
0.000264616
0.00026548
0.000266207
0.000266799
0.000267261
0.00026758
0.000267722
0.000267782
0.000267723
0.000267533
0.000267219
0.000266785
0.000266234
0.000265571
0.000264798
0.000263919
0.000262937
0.000261857
0.000260682
0.000259416
0.000258061
0.000256623
0.000255106
0.000253513
0.000251849
0.000250117
0.000248321
0.000246465
0.000244552
0.000242585
0.000240569
0.000238509
0.000236405
0.000234261
0.000232081
0.000229869
0.000227627
0.00022536
0.000223069
0.000220759
0.000218431
0.000216088
0.000213733
0.000211368
0.000208995
0.000206616
0.000204234
0.000201851
0.000199467
0.000197086
0.000194709
0.000192337
0.000189972
0.000187614
0.000185267
0.00018293
0.000180604
0.000178291
0.000175992
0.000173708
0.000171438
0.000169186
0.000166951
0.000164734
0.000162536
0.000160356
0.000158196
0.000156055
0.000153935
0.000151835
0.000149756
0.000147698
0.00014566
0.000143645
0.000141651
0.00013968
0.00013773
0.000135803
0.000133897
0.000132013
0.000130151
0.00012831
0.000126492
0.000124694
0.000122918
0.000121162
0.000119428
0.000117715
0.000116022
0.000114348
0.000112694
0.000111058
0.000109439
0.000107834
0.000106245
0.00010465
0.000103015
0.000101352
9.96351e-05
9.78661e-05
9.59406e-05
9.37088e-05
9.1297e-05
8.39259e-05
1.42174e-07
1.01931e-05
2.87067e-05
4.36861e-05
5.43137e-05
6.16712e-05
6.67674e-05
7.04872e-05
7.34858e-05
7.61891e-05
7.88432e-05
8.15746e-05
8.45145e-05
8.77464e-05
9.13222e-05
9.52705e-05
9.95854e-05
0.000104214
0.000109227
0.000114643
0.000120475
0.000126691
0.000133215
0.000140011
0.000147047
0.000154289
0.000161707
0.000169272
0.000176955
0.000184732
0.00019258
0.00020048
0.000208414
0.000216366
0.000224323
0.000232274
0.000240209
0.000248118
0.000255994
0.00026383
0.000271617
0.000279351
0.000287024
0.000294631
0.000302164
0.000309616
0.00031698
0.000324247
0.000331407
0.000338449
0.000345361
0.000352128
0.000358733
0.000365161
0.000371386
0.000377415
0.00038328
0.000388988
0.000394537
0.000399921
0.000405136
0.000410176
0.000415036
0.000419711
0.000424195
0.000428486
0.000432578
0.000436468
0.000440152
0.000443629
0.000446894
0.000449948
0.000452787
0.000455412
0.000457821
0.000460015
0.000461994
0.000463758
0.000465311
0.000466653
0.000467788
0.000468738
0.000469381
0.000469869
0.00047019
0.000470307
0.000470228
0.000469957
0.000469501
0.000468864
0.00046805
0.000467064
0.000465913
0.0004646
0.000463131
0.00046151
0.000459741
0.000457832
0.000455788
0.000453616
0.000451321
0.000448907
0.000446382
0.000443749
0.000441013
0.000438181
0.000435256
0.000432245
0.000429151
0.000425981
0.00042274
0.000419432
0.000416063
0.000412638
0.000409161
0.000405637
0.00040207
0.000398463
0.00039482
0.000391147
0.000387445
0.000383718
0.00037997
0.000376203
0.000372422
0.000368628
0.000364824
0.000361013
0.000357197
0.000353378
0.00034956
0.000345742
0.000341927
0.000338118
0.000334315
0.000330521
0.000326738
0.000322966
0.000319207
0.000315462
0.000311733
0.00030802
0.000304324
0.000300646
0.000296987
0.000293346
0.000289725
0.000286125
0.000282546
0.000278989
0.000275455
0.000271945
0.000268458
0.000264994
0.000261553
0.000258136
0.000254743
0.000251374
0.00024803
0.000244709
0.000241412
0.000238139
0.000234889
0.000231663
0.00022846
0.000225278
0.000222117
0.000218975
0.00021585
0.000212738
0.000209637
0.000206535
0.0002034
0.000200223
0.000196965
0.000193628
0.000190074
0.000186215
0.00018205
0.00017137
2.48218e-07
1.49438e-05
3.98462e-05
6.00111e-05
7.45928e-05
8.50055e-05
9.25855e-05
9.84001e-05
0.000103245
0.000107674
0.000112045
0.000116581
0.00012142
0.000126647
0.000132307
0.000138421
0.000144996
0.000152026
0.000159514
0.000167451
0.00017581
0.000184544
0.000193611
0.000202965
0.000212564
0.000222369
0.000232344
0.000242454
0.000252671
0.000262966
0.000273315
0.000283697
0.000294095
0.00030449
0.00031487
0.000325223
0.000335538
0.000345805
0.000356016
0.000366163
0.000376237
0.000386232
0.000396141
0.000405954
0.000415666
0.000425267
0.000434749
0.000444103
0.000453317
0.000462379
0.000471278
0.000479999
0.000488529
0.000496851
0.000504965
0.000512878
0.000520597
0.000528122
0.000535447
0.000542567
0.000549475
0.000556165
0.00056263
0.000568865
0.000574864
0.000580621
0.000586131
0.000591389
0.000596393
0.000601137
0.00060562
0.000609838
0.00061379
0.000617474
0.000620889
0.000624034
0.000626911
0.000629519
0.00063186
0.000633937
0.000635781
0.000637333
0.000638544
0.000639549
0.000640331
0.000640857
0.000641132
0.000641164
0.000640957
0.000640517
0.000639849
0.000638959
0.000637852
0.000636535
0.000635014
0.000633301
0.000631405
0.000629324
0.000627064
0.00062463
0.00062203
0.000619268
0.000616352
0.000613288
0.000610082
0.000606739
0.000603266
0.00059967
0.000595955
0.000592128
0.000588196
0.000584166
0.000580042
0.000575832
0.000571541
0.000567174
0.000562738
0.000558235
0.000553673
0.000549056
0.000544388
0.000539674
0.000534918
0.000530124
0.000525296
0.000520439
0.000515555
0.000510649
0.000505723
0.000500781
0.000495826
0.000490859
0.000485883
0.000480902
0.000475918
0.000470934
0.000465953
0.000460975
0.000456004
0.000451041
0.000446087
0.000441144
0.000436214
0.000431298
0.000426397
0.000421512
0.000416645
0.000411796
0.000406966
0.000402157
0.00039737
0.000392605
0.000387863
0.000383142
0.000378445
0.000373773
0.000369126
0.000364505
0.000359909
0.00035534
0.000350796
0.000346278
0.000341786
0.000337319
0.000332876
0.000328458
0.000324061
0.000319685
0.000315326
0.000310981
0.000306646
0.00030231
0.000297949
0.000293547
0.000289065
0.00028449
0.000279694
0.00027461
0.000269281
0.000257507
3.63139e-07
1.89275e-05
4.91847e-05
7.37542e-05
9.19841e-05
0.000105353
0.000115398
0.000123334
0.000130074
0.000136267
0.000142356
0.000148621
0.000155233
0.00016229
0.000169839
0.000177898
0.000186469
0.000195537
0.000205081
0.000215072
0.000225474
0.000236217
0.000247289
0.000258635
0.000270208
0.000281968
0.000293877
0.000305901
0.000318009
0.000330174
0.000342374
0.000354587
0.000366797
0.000378985
0.000391134
0.000403238
0.000415285
0.000427265
0.000439168
0.000450988
0.000462715
0.000474341
0.000485859
0.000497261
0.000508541
0.00051969
0.000530699
0.000541561
0.000552265
0.000562802
0.000573159
0.000583322
0.000593279
0.000603027
0.000612564
0.000621888
0.000631
0.000639893
0.000648562
0.000657
0.000665201
0.000673157
0.000680861
0.000688307
0.000695489
0.0007024
0.000709035
0.000715389
0.000721458
0.000727237
0.000732723
0.000737913
0.000742804
0.000747394
0.000751681
0.000755666
0.000759346
0.000762724
0.000765797
0.000768591
0.000771098
0.000773255
0.000775067
0.000776632
0.000777928
0.000778933
0.000779651
0.000780087
0.000780248
0.000780137
0.000779761
0.000779125
0.000778236
0.000777098
0.00077572
0.000774106
0.000772261
0.000770194
0.000767912
0.000765421
0.000762728
0.00075984
0.000756765
0.000753508
0.000750077
0.000746478
0.000742717
0.000738803
0.00073474
0.000730537
0.0007262
0.000721736
0.000717152
0.000712455
0.000707651
0.000702746
0.000697747
0.00069266
0.00068749
0.000682243
0.000676924
0.000671538
0.000666091
0.000660588
0.000655033
0.000649431
0.000643786
0.000638103
0.000632385
0.000626637
0.000620862
0.000615065
0.000609256
0.000603431
0.000597593
0.000591744
0.000585886
0.000580024
0.000574157
0.000568291
0.000562425
0.000556564
0.000550708
0.00054486
0.000539022
0.000533195
0.00052738
0.00052158
0.000515795
0.000510028
0.000504279
0.00049855
0.00049284
0.000487152
0.000481486
0.000475843
0.000470225
0.000464633
0.000459066
0.000453525
0.00044801
0.000442522
0.00043706
0.000431626
0.000426217
0.000420834
0.000415475
0.000410137
0.000404818
0.000399515
0.000394222
0.000388931
0.000383622
0.00037828
0.00037287
0.000367369
0.000361675
0.000355704
0.000349718
0.000337413
4.71738e-07
2.21569e-05
5.67788e-05
8.51896e-05
0.000106845
0.000123121
0.000135662
0.000145775
0.000154453
0.000162419
0.000170179
0.000178065
0.000186282
0.000194947
0.000204118
0.000213812
0.000224022
0.000234733
0.000245904
0.000257481
0.000269408
0.000281715
0.000294312
0.000307153
0.000320195
0.000333395
0.000346719
0.000360131
0.000373602
0.000387103
0.000400615
0.000414121
0.000427608
0.000441065
0.000454494
0.000467862
0.000481152
0.000494353
0.000507455
0.000520449
0.000533326
0.00054608
0.000558701
0.000571182
0.00058352
0.000595709
0.000607741
0.00061961
0.000631307
0.000642826
0.00065416
0.000665305
0.000676259
0.000687011
0.000697554
0.000707881
0.000717985
0.000727862
0.000737504
0.000746903
0.000756054
0.000764947
0.000773577
0.000781936
0.000790017
0.000797814
0.000805321
0.000812533
0.000819445
0.000826051
0.000832349
0.000838333
0.000844002
0.000849351
0.000854381
0.000859087
0.000863471
0.000867531
0.000871268
0.000874722
0.00087782
0.00088058
0.000882976
0.0008851
0.000886922
0.000888429
0.000889626
0.000890517
0.000891106
0.000891398
0.0008914
0.000891115
0.00089055
0.00088971
0.000888602
0.000887231
0.000885604
0.000883728
0.000881609
0.000879254
0.00087667
0.000873864
0.000870843
0.000867615
0.000864185
0.000860562
0.000856752
0.000852761
0.000848598
0.000844268
0.00083978
0.00083514
0.000830356
0.000825434
0.000820382
0.000815207
0.000809914
0.000804511
0.000799003
0.000793398
0.0007877
0.000781916
0.000776051
0.00077011
0.0007641
0.000758025
0.000751891
0.000745701
0.000739461
0.000733175
0.000726848
0.000720482
0.000714083
0.000707656
0.000701203
0.000694728
0.000688234
0.000681725
0.000675203
0.000668672
0.000662134
0.000655593
0.000649049
0.000642507
0.000635967
0.000629433
0.000622907
0.000616389
0.000609883
0.00060339
0.000596911
0.000590449
0.00058401
0.000577591
0.000571193
0.000564816
0.000558461
0.000552129
0.000545822
0.00053954
0.000533283
0.000527052
0.000520849
0.000514671
0.000508519
0.000502393
0.000496293
0.000490217
0.000484163
0.000478127
0.000472105
0.000466088
0.000460061
0.000454009
0.000447907
0.000441727
0.000435393
0.000428816
0.000422289
0.000410173
5.6438e-07
2.4624e-05
6.26764e-05
9.43979e-05
0.000119205
0.00013829
0.000153315
0.000165626
0.000176261
0.000185992
0.00019537
0.00020477
0.00021443
0.000224492
0.000235032
0.000246063
0.00025756
0.000269483
0.000281829
0.000294597
0.000307773
0.000321248
0.000334968
0.000348894
0.000362987
0.000377209
0.000391525
0.000405903
0.000420319
0.000434773
0.000449236
0.00046367
0.000478051
0.000492352
0.000506557
0.000520671
0.000534686
0.000548596
0.000562396
0.000576079
0.00058964
0.000603073
0.000616376
0.000629544
0.000642568
0.000655441
0.000668158
0.000680712
0.000693097
0.000705308
0.000717338
0.000729183
0.000740836
0.00075229
0.000763538
0.000774572
0.000785386
0.000795972
0.000806324
0.000816432
0.00082629
0.000835889
0.000845223
0.000854284
0.000863065
0.000871559
0.000879759
0.000887661
0.000895257
0.000902543
0.000909514
0.000916166
0.000922495
0.000928498
0.000934171
0.000939513
0.000944522
0.000949196
0.000953549
0.000957588
0.000961254
0.000964587
0.000967552
0.000970223
0.00097257
0.000974588
0.00097628
0.000977649
0.0009787
0.000979437
0.000979865
0.000979989
0.000979814
0.000979346
0.00097859
0.000977552
0.000976238
0.000974654
0.000972807
0.000970704
0.000968351
0.000965755
0.000962923
0.000959863
0.00095658
0.000953082
0.000949376
0.000945469
0.000941368
0.00093708
0.000932613
0.000927973
0.000923168
0.000918205
0.00091309
0.000907833
0.000902438
0.000896912
0.000891264
0.000885497
0.000879621
0.000873639
0.000867558
0.000861385
0.000855125
0.000848783
0.000842365
0.000835876
0.000829322
0.000822706
0.000816035
0.000809311
0.000802541
0.000795728
0.000788878
0.000781993
0.000775077
0.000768135
0.00076117
0.000754185
0.000747184
0.000740169
0.000733144
0.000726112
0.000719075
0.000712036
0.000704997
0.000697961
0.00069093
0.000683907
0.000676893
0.00066989
0.0006629
0.000655926
0.000648968
0.00064203
0.000635111
0.000628213
0.000621338
0.000614487
0.00060766
0.000600858
0.000594083
0.000587335
0.000580617
0.000573927
0.000567263
0.000560625
0.000554011
0.000547418
0.000540842
0.000534278
0.000527713
0.000521137
0.000514528
0.000507861
0.000501079
0.000494101
0.000487138
0.00047561
6.36342e-07
2.63796e-05
6.69817e-05
0.000101585
0.000129102
0.000150833
0.000168266
0.000182745
0.000195318
0.000206781
0.000217717
0.000228537
0.0002395
0.000250739
0.000262312
0.000274301
0.00028676
0.000299701
0.000313075
0.00032681
0.000340838
0.000355121
0.000369614
0.000384278
0.000399074
0.000413968
0.000428926
0.000443932
0.000458975
0.000473986
0.000488937
0.000503824
0.000518639
0.000533376
0.000548018
0.000562558
0.000576991
0.00059131
0.000605513
0.000619595
0.000633552
0.000647382
0.000661082
0.000674647
0.000688073
0.000701355
0.000714489
0.00072747
0.000740292
0.000752951
0.00076544
0.000777754
0.000789886
0.000801829
0.000813575
0.000825118
0.000836449
0.00084756
0.000858444
0.000869091
0.000879495
0.000889646
0.000899537
0.00090916
0.000918507
0.000927571
0.000936345
0.000944822
0.000952996
0.000960862
0.000968413
0.000975645
0.000982554
0.000989134
0.000995384
0.0010013
0.00100688
0.00101212
0.00101704
0.00102161
0.00102583
0.00102971
0.00103323
0.00103643
0.0010393
0.00104183
0.00104402
0.00104588
0.00104741
0.00104861
0.00104949
0.00105006
0.00105031
0.00105026
0.00104991
0.00104926
0.00104832
0.00104709
0.00104559
0.00104381
0.00104177
0.00103947
0.00103692
0.00103412
0.00103108
0.00102781
0.00102431
0.0010206
0.00101667
0.00101254
0.00100821
0.0010037
0.000998997
0.000994121
0.000989076
0.000983871
0.00097851
0.000973003
0.000967354
0.000961571
0.00095566
0.000949629
0.000943482
0.000937226
0.000930867
0.000924411
0.000917864
0.000911231
0.000904518
0.00089773
0.000890871
0.000883948
0.000876964
0.000869925
0.000862835
0.000855699
0.000848521
0.000841305
0.000834055
0.000826775
0.000819469
0.000812139
0.00080479
0.000797425
0.000790047
0.000782659
0.000775263
0.000767863
0.000760462
0.000753061
0.000745663
0.000738272
0.000730888
0.000723514
0.000716153
0.000708806
0.000701475
0.000694162
0.000686869
0.000679596
0.000672346
0.000665119
0.000657917
0.00065074
0.000643589
0.000636466
0.00062937
0.000622301
0.000615257
0.000608239
0.000601242
0.000594265
0.0005873
0.000580338
0.000573362
0.000566351
0.000559264
0.000552033
0.000544763
0.000533901
6.86637e-07
2.75159e-05
6.98849e-05
0.000106821
0.000136693
0.000160832
0.000180532
0.000197087
0.000211538
0.00022468
0.000237067
0.000249086
0.000261054
0.000273236
0.000285795
0.000298764
0.000312122
0.000325839
0.000339884
0.000354224
0.000368817
0.000383618
0.000398589
0.000413689
0.000428882
0.000444136
0.000459435
0.000474768
0.000490048
0.000505262
0.000520411
0.00053548
0.000550461
0.000565347
0.00058013
0.000594806
0.000609371
0.000623824
0.000638162
0.000652386
0.000666492
0.000680481
0.00069435
0.000708098
0.000721721
0.000735217
0.000748581
0.00076181
0.000774898
0.00078784
0.000800631
0.000813263
0.00082573
0.000838025
0.000850138
0.000862062
0.000873788
0.000885308
0.000896613
0.000907693
0.00091854
0.000929146
0.0009395
0.000949596
0.000959424
0.000968977
0.000978247
0.000987227
0.000995909
0.00100429
0.00101236
0.00102011
0.00102754
0.00103465
0.00104143
0.00104788
0.00105399
0.00105976
0.0010652
0.00107029
0.00107504
0.00107944
0.0010835
0.00108722
0.0010906
0.00109363
0.00109632
0.00109867
0.00110069
0.00110237
0.00110372
0.00110475
0.00110546
0.00110585
0.00110593
0.0011057
0.00110517
0.00110435
0.00110323
0.00110183
0.00110015
0.0010982
0.00109598
0.00109351
0.00109078
0.00108781
0.00108459
0.00108115
0.00107747
0.00107358
0.00106948
0.00106517
0.00106066
0.00105596
0.00105108
0.00104603
0.0010408
0.00103541
0.00102986
0.00102416
0.00101833
0.00101235
0.00100625
0.00100002
0.000993674
0.000987218
0.000980656
0.000973995
0.000967239
0.000960396
0.000953469
0.000946464
0.000939387
0.000932243
0.000925035
0.00091777
0.000910451
0.000903084
0.000895672
0.000888219
0.00088073
0.000873209
0.000865659
0.000858083
0.000850486
0.000842871
0.000835241
0.000827599
0.000819948
0.000812291
0.000804631
0.000796971
0.000789312
0.000781659
0.000774012
0.000766375
0.00075875
0.000751139
0.000743543
0.000735965
0.000728406
0.000720868
0.000713353
0.000705862
0.000698395
0.000690955
0.000683541
0.000676156
0.000668797
0.000661466
0.00065416
0.000646878
0.000639616
0.000632369
0.000625127
0.000617874
0.000610582
0.000603193
0.000595732
0.000585498
7.16561e-07
2.81256e-05
7.15692e-05
0.000110295
0.000142168
0.000168447
0.000190237
0.000208711
0.00022482
0.000239342
0.000252963
0.000266189
0.000279342
0.000292576
0.000305992
0.000319656
0.0003336
0.000347823
0.000362305
0.000377015
0.000391919
0.000406978
0.000422155
0.000437416
0.000452722
0.000468085
0.00048348
0.000498805
0.000514039
0.000529195
0.000544265
0.000559241
0.000574119
0.000588897
0.000603572
0.000618145
0.000632616
0.000646986
0.000661257
0.000675431
0.000689507
0.000703487
0.00071737
0.000731155
0.000744841
0.000758424
0.000771902
0.000785269
0.00079852
0.000811649
0.000824649
0.000837514
0.000850233
0.0008628
0.000875206
0.000887439
0.000899492
0.000911355
0.000923016
0.000934468
0.0009457
0.000956701
0.000967464
0.000977979
0.000988236
0.000998227
0.00100794
0.00101738
0.00102652
0.00103537
0.00104392
0.00105215
0.00106007
0.00106767
0.00107495
0.00108189
0.0010885
0.00109478
0.00110072
0.00110631
0.00111156
0.00111648
0.00112104
0.00112527
0.00112917
0.00113269
0.00113588
0.00113872
0.00114122
0.00114339
0.00114522
0.00114672
0.00114789
0.00114874
0.00114927
0.00114948
0.00114939
0.00114899
0.00114829
0.0011473
0.00114602
0.00114446
0.00114262
0.00114051
0.00113814
0.0011355
0.00113262
0.00112949
0.00112613
0.00112253
0.00111871
0.00111467
0.00111042
0.00110597
0.00110131
0.00109647
0.00109145
0.00108625
0.00108088
0.00107535
0.00106966
0.00106382
0.00105784
0.00105172
0.00104547
0.0010391
0.00103261
0.00102601
0.0010193
0.00101249
0.00100558
0.000998586
0.000991507
0.000984349
0.000977117
0.000969817
0.000962452
0.000955028
0.000947549
0.000940019
0.000932444
0.000924827
0.000917172
0.000909483
0.000901764
0.000894019
0.000886251
0.000878463
0.00087066
0.000862843
0.000855017
0.000847184
0.000839347
0.000831509
0.000823673
0.000815842
0.000808017
0.000800201
0.000792398
0.000784607
0.000776833
0.000769077
0.000761341
0.000753626
0.000745934
0.000738268
0.000730628
0.000723015
0.000715431
0.000707875
0.000700349
0.000692852
0.000685381
0.000677936
0.000670511
0.000663096
0.000655671
0.000648193
0.00064063
0.000630945
7.28187e-07
2.83021e-05
7.22082e-05
0.000112213
0.000145739
0.000173759
0.000197185
0.00021723
0.000234907
0.000251016
0.000266082
0.000280517
0.000294625
0.000308633
0.000322684
0.000336861
0.000351206
0.00036573
0.000380426
0.00039527
0.000410238
0.000425297
0.000440404
0.000455576
0.000470841
0.000486082
0.000501222
0.000516243
0.000531171
0.000546003
0.000560739
0.000575379
0.000589925
0.00060438
0.000618749
0.000633034
0.000647242
0.000661377
0.000675442
0.000689441
0.000703377
0.00071725
0.00073106
0.000744808
0.000758489
0.000772101
0.000785638
0.000799096
0.000812466
0.000825742
0.000838916
0.000851977
0.000864916
0.000877724
0.00089039
0.000902902
0.000915251
0.000927425
0.000939413
0.000951205
0.00096279
0.000974157
0.000985296
0.000996198
0.00100685
0.00101725
0.00102738
0.00103724
0.00104682
0.00105611
0.0010651
0.00107379
0.00108217
0.00109023
0.00109797
0.00110539
0.00111248
0.00111924
0.00112565
0.00113172
0.00113747
0.00114287
0.00114793
0.00115267
0.00115706
0.00116107
0.00116475
0.00116807
0.00117106
0.00117371
0.00117602
0.00117799
0.00117963
0.00118095
0.00118194
0.00118262
0.00118297
0.00118302
0.00118276
0.00118219
0.00118133
0.00118018
0.00117875
0.00117703
0.00117505
0.00117279
0.00117028
0.0011675
0.00116448
0.00116122
0.00115773
0.001154
0.00115005
0.00114589
0.00114152
0.00113694
0.00113217
0.00112722
0.00112208
0.00111676
0.00111128
0.00110564
0.00109984
0.0010939
0.00108781
0.00108159
0.00107523
0.00106875
0.00106216
0.00105545
0.00104864
0.00104172
0.00103471
0.00102761
0.00102043
0.00101317
0.00100583
0.000998425
0.000990954
0.000983424
0.000975838
0.000968202
0.000960519
0.000952794
0.00094503
0.000937232
0.000929404