/*--------------------------------*- C++ -*----------------------------------*\
  =========                 |
  \\      /  F ield         | OpenFOAM: The Open Source CFD Toolbox
   \\    /   O peration     | Website:  https://openfoam.org
    \\  /    A nd           | Version:  10
     \\/     M anipulation  |
\*---------------------------------------------------------------------------*/
FoamFile
{
    format      ascii;
    class       volScalarField;
    location    "234";
    object      p;
}
// * * * * * * * * * * * * * * * * * * * * * * * * * * * * * * * * * * * * * //

dimensions      [0 2 -2 0 0 0 0];

internalField   nonuniform List<scalar> 
12225
(
-0.36598
-0.306593
-0.245527
-0.197235
-0.160015
-0.132121
-0.110895
-0.0945421
-0.0818913
-0.0720822
-0.0644971
-0.0587069
-0.054425
-0.0515058
-0.049963
-0.0502385
-0.0534709
-0.0642422
-0.445743
-0.317319
-0.252348
-0.203312
-0.16543
-0.136994
-0.115262
-0.0984695
-0.0854452
-0.0753198
-0.067469
-0.0614591
-0.0570003
-0.0539472
-0.0523079
-0.0524759
-0.0551055
-0.0628319
-0.501392
-0.332395
-0.264432
-0.213665
-0.174542
-0.145181
-0.122601
-0.105071
-0.0914181
-0.0807565
-0.0724515
-0.0660593
-0.0612804
-0.057956
-0.0560552
-0.0558134
-0.057287
-0.0607235
-0.517644
-0.345443
-0.276295
-0.223758
-0.183536
-0.153371
-0.130048
-0.11186
-0.0976279
-0.0864596
-0.0777131
-0.0709342
-0.0658081
-0.0621452
-0.0598409
-0.0589184
-0.0589878
-0.0594734
-0.510133
-0.354596
-0.285384
-0.231854
-0.19101
-0.160349
-0.136533
-0.117878
-0.103215
-0.0916511
-0.0825434
-0.0754295
-0.0699762
-0.0659548
-0.0631803
-0.0615027
-0.0603138
-0.0591181
-0.489051
-0.359146
-0.291326
-0.238005
-0.197046
-0.166184
-0.142104
-0.123151
-0.108181
-0.0963153
-0.0869134
-0.0795069
-0.0737446
-0.0693599
-0.0661023
-0.0637135
-0.0615197
-0.0593488
-0.459179
-0.358424
-0.293911
-0.242158
-0.201717
-0.17094
-0.146818
-0.127723
-0.112557
-0.10047
-0.0908306
-0.0831671
-0.077114
-0.072374
-0.0686533
-0.0656407
-0.0626843
-0.0599584
-0.423905
-0.352149
-0.292957
-0.243984
-0.204918
-0.174551
-0.150625
-0.131556
-0.116311
-0.104086
-0.0942661
-0.0863839
-0.0800651
-0.0749929
-0.0708522
-0.067319
-0.0638125
-0.0608099
-0.385955
-0.340505
-0.288494
-0.243222
-0.206421
-0.176941
-0.153463
-0.134604
-0.11941
-0.107135
-0.0971975
-0.0891402
-0.0825894
-0.0772215
-0.0727193
-0.0687723
-0.0648924
-0.0617901
-0.347317
-0.32408
-0.280717
-0.239869
-0.205981
-0.178017
-0.155273
-0.136825
-0.121822
-0.109597
-0.0996108
-0.0914287
-0.0846887
-0.0790724
-0.074276
-0.0700168
-0.0659009
-0.0628038
-0.309215
-0.303867
-0.269949
-0.234121
-0.203583
-0.177695
-0.156021
-0.138179
-0.123517
-0.11145
-0.101493
-0.0932457
-0.0863677
-0.0805583
-0.0755372
-0.0710572
-0.0668012
-0.0637801
-0.275357
-0.282926
-0.257838
-0.226973
-0.199785
-0.176148
-0.155769
-0.13865
-0.124429
-0.1126
-0.102739
-0.094488
-0.087534
-0.0816001
-0.0764348
-0.0718238
-0.0674934
-0.0645934
-0.244344
-0.260534
-0.244155
-0.218324
-0.194579
-0.173398
-0.154579
-0.138382
-0.124729
-0.113232
-0.103536
-0.095337
-0.0883571
-0.0823497
-0.0770936
-0.0724034
-0.0680916
-0.0651999
-0.212064
-0.234572
-0.227248
-0.207085
-0.187236
-0.168935
-0.152101
-0.137197
-0.124345
-0.113335
-0.103913
-0.0958405
-0.0888906
-0.0828568
-0.0775538
-0.072829
-0.0685791
-0.0656473
-0.179585
-0.206509
-0.207738
-0.193539
-0.177734
-0.162595
-0.148123
-0.134835
-0.123018
-0.112667
-0.103647
-0.0957979
-0.0889544
-0.0829598
-0.0776695
-0.0729656
-0.068798
-0.065814
-0.148887
-0.178683
-0.187268
-0.178819
-0.166842
-0.154837
-0.142837
-0.13127
-0.120613
-0.11104
-0.102527
-0.0949905
-0.0883304
-0.0824421
-0.0772225
-0.072586
-0.068509
-0.0654475
-0.123163
-0.154614
-0.168705
-0.165148
-0.156446
-0.147061
-0.137165
-0.12709
-0.11745
-0.108575
-0.100534
-0.0933022
-0.0868331
-0.0810647
-0.0759271
-0.0713574
-0.0673315
-0.0640947
-0.10815
-0.139647
-0.156507
-0.155905
-0.149181
-0.141311
-0.132664
-0.12349
-0.11444
-0.105951
-0.0981647
-0.091097
-0.0847311
-0.0790315
-0.0739481
-0.069428
-0.0654303
-0.0619854
-0.113896
-0.143568
-0.159143
-0.157582
-0.149936
-0.141271
-0.132001
-0.122316
-0.112822
-0.103948
-0.0958263
-0.0884645
-0.0818368
-0.0758986
-0.0705904
-0.0658451
-0.0615807
-0.0576124
-0.137661
-0.166631
-0.177502
-0.170909
-0.159575
-0.148086
-0.136573
-0.125224
-0.114542
-0.104812
-0.0960652
-0.088251
-0.0813004
-0.0751371
-0.0696804
-0.0648496
-0.0605431
-0.056487
-0.176766
-0.201317
-0.203561
-0.189496
-0.172909
-0.157319
-0.142508
-0.128698
-0.11625
-0.10524
-0.0955591
-0.0870675
-0.0796299
-0.0731158
-0.0674062
-0.0623914
-0.0579475
-0.0537472
-0.22617
-0.242067
-0.232151
-0.208967
-0.186117
-0.165781
-0.147384
-0.13104
-0.116883
-0.104709
-0.0942359
-0.0852158
-0.0774355
-0.0707077
-0.0648737
-0.0597999
-0.0553514
-0.0512084
-0.282778
-0.283659
-0.258132
-0.225267
-0.196039
-0.171022
-0.149478
-0.131178
-0.115777
-0.102805
-0.0918287
-0.0824996
-0.0745368
-0.0677112
-0.0618358
-0.0567589
-0.0523401
-0.0482778
-0.343711
-0.320324
-0.277195
-0.235794
-0.201116
-0.172319
-0.148617
-0.129117
-0.112988
-0.0995803
-0.0883657
-0.0789235
-0.0709271
-0.0641189
-0.0582931
-0.0532844
-0.0489525
-0.0450235
-0.404767
-0.346736
-0.287504
-0.239862
-0.201076
-0.169966
-0.145153
-0.125065
-0.108636
-0.0951073
-0.0838831
-0.0745022
-0.0666092
-0.059927
-0.0542373
-0.0493669
-0.0451775
-0.0414258
-0.460264
-0.359879
-0.288907
-0.237675
-0.196622
-0.164604
-0.139458
-0.119283
-0.102919
-0.0895415
-0.0785149
-0.0693524
-0.0616832
-0.0552208
-0.0497418
-0.0450698
-0.0410695
-0.0375299
-0.501468
-0.359391
-0.28211
-0.230039
-0.18868
-0.156744
-0.13185
-0.11201
-0.0960178
-0.0830216
-0.0723667
-0.063557
-0.0562176
-0.0500605
-0.0448623
-0.0404464
-0.0366808
-0.0333881
-0.510853
-0.346671
-0.268625
-0.217801
-0.177563
-0.146457
-0.122327
-0.103221
-0.0879053
-0.0755248
-0.0654266
-0.0571177
-0.0502277
-0.0444733
-0.0396361
-0.0355432
-0.0320661
-0.029062
-0.462593
-0.325532
-0.252285
-0.203262
-0.164796
-0.13495
-0.111906
-0.0937912
-0.0793519
-0.0677392
-0.0583156
-0.0505997
-0.0442317
-0.0389383
-0.0345089
-0.0307781
-0.0276202
-0.024911
-0.369007
-0.307681
-0.241536
-0.193525
-0.156167
-0.127142
-0.104821
-0.0873691
-0.0735132
-0.0624093
-0.0534312
-0.0461061
-0.0400818
-0.0350919
-0.0309315
-0.0274385
-0.024491
-0.0219491
-0.0735304
-0.0735207
-0.0736182
-0.073832
-0.0741193
-0.074443
-0.0747891
-0.0751569
-0.075546
-0.0759593
-0.0764026
-0.076883
-0.0774059
-0.077976
-0.0785986
-0.0792801
-0.0800278
-0.0808496
-0.081752
-0.0827397
-0.083815
-0.0849776
-0.0862239
-0.0875472
-0.0889363
-0.0903773
-0.0918525
-0.0933425
-0.0948252
-0.0962779
-0.0976767
-0.0989982
-0.100219
-0.101315
-0.102267
-0.103052
-0.103652
-0.104049
-0.104227
-0.10417
-0.103865
-0.103299
-0.102461
-0.101343
-0.0999339
-0.0982282
-0.0962193
-0.093903
-0.0912757
-0.0883356
-0.0850815
-0.0815173
-0.077654
-0.0735052
-0.0690668
-0.064312
-0.0592366
-0.0538617
-0.0482021
-0.0422704
-0.0360788
-0.0296391
-0.0229642
-0.0160669
-0.00896145
-0.0016617
0.00581674
0.0134591
0.0212488
0.0291704
0.0372067
0.0453421
0.0535591
0.061842
0.0701735
0.0785382
0.0869191
0.0953015
0.103669
0.112008
0.120303
0.128542
0.136709
0.144794
0.152783
0.160667
0.168434
0.176075
0.183581
0.190943
0.198156
0.205211
0.212102
0.218825
0.225375
0.231748
0.237941
0.243951
0.249777
0.255417
0.260871
0.266138
0.271218
0.276113
0.280824
0.285351
0.289703
0.293884
0.297893
0.301729
0.305395
0.308893
0.31223
0.315407
0.318431
0.321304
0.324031
0.326617
0.329066
0.331383
0.333571
0.335635
0.33758
0.33941
0.341129
0.342742
0.344252
0.345664
0.346982
0.348209
0.349349
0.350406
0.351384
0.352285
0.353114
0.353874
0.354567
0.355196
0.355765
0.356276
0.356732
0.357134
0.357487
0.357791
0.35805
0.358264
0.358437
0.358569
0.358663
0.35872
0.358742
0.35873
0.358685
0.358609
0.358504
0.358369
0.358206
0.358017
0.357802
0.357563
0.357299
0.357014
0.356706
0.356379
0.356034
0.355673
0.355297
0.354912
0.354521
0.354131
0.35375
0.353394
0.353075
0.352814
0.352652
0.352644
0.352912
0.353545
0.355212
0.357085
-0.0732651
-0.0733095
-0.0734264
-0.0736212
-0.0738583
-0.074103
-0.0743441
-0.0745881
-0.0748513
-0.0751476
-0.0754859
-0.0758669
-0.0762923
-0.0767709
-0.0773113
-0.0779225
-0.0786136
-0.0793924
-0.0802653
-0.081237
-0.0823104
-0.0834852
-0.0847567
-0.0861162
-0.0875507
-0.0890442
-0.0905775
-0.0921296
-0.0936773
-0.0951972
-0.0966649
-0.0980566
-0.0993488
-0.100519
-0.101547
-0.102411
-0.103094
-0.103577
-0.103845
-0.103883
-0.103679
-0.103218
-0.102492
-0.10149
-0.100204
-0.0986263
-0.0967513
-0.0945743
-0.0920915
-0.0893004
-0.0861992
-0.0827871
-0.0790615
-0.0750163
-0.0706513
-0.0659868
-0.0610378
-0.0558047
-0.0502923
-0.0445087
-0.0384637
-0.0321679
-0.0256333
-0.018872
-0.0118978
-0.00472417
0.0026339
0.0101616
0.0178432
0.025663
0.0336047
0.0416521
0.0497886
0.0579981
0.0662638
0.07457
0.0829002
0.091239
0.099571
0.107882
0.116156
0.124381
0.132541
0.140625
0.148622
0.156519
0.164305
0.171972
0.179509
0.186909
0.194163
0.201265
0.208208
0.214987
0.221597
0.228033
0.234293
0.240374
0.246273
0.251988
0.25752
0.262867
0.26803
0.273008
0.277805
0.282421
0.286851
0.291094
0.295157
0.299048
0.30277
0.306327
0.309722
0.312959
0.316042
0.318975
0.321763
0.324409
0.326918
0.329294
0.331542
0.333665
0.335668
0.337556
0.339332
0.341001
0.342566
0.344032
0.345403
0.346682
0.347873
0.34898
0.350007
0.350956
0.351831
0.352636
0.353373
0.354046
0.354656
0.355208
0.355703
0.356144
0.356533
0.356874
0.357167
0.357415
0.357621
0.357785
0.357909
0.357996
0.358046
0.358061
0.358043
0.357993
0.357912
0.357801
0.357662
0.357495
0.357301
0.357082
0.356839
0.356572
0.356284
0.355975
0.355647
0.355303
0.354945
0.354576
0.354202
0.353828
0.353464
0.353121
0.352816
0.352573
0.352429
0.352437
0.352711
0.353315
0.354838
0.35634
-0.0723521
-0.0725382
-0.0728295
-0.0731319
-0.0733664
-0.0735294
-0.0736518
-0.0737674
-0.0739033
-0.0740791
-0.0743086
-0.074602
-0.0749681
-0.0754158
-0.0759535
-0.0765881
-0.0773247
-0.0781665
-0.0791151
-0.0801703
-0.081329
-0.0825845
-0.0839269
-0.085344
-0.086821
-0.0883416
-0.0898872
-0.0914385
-0.0929747
-0.094475
-0.0959182
-0.0972835
-0.0985501
-0.0996984
-0.100709
-0.101564
-0.102245
-0.102738
-0.103025
-0.103094
-0.10293
-0.102523
-0.10186
-0.100933
-0.0997317
-0.0982491
-0.0964783
-0.0944142
-0.0920522
-0.0893894
-0.0864238
-0.0831544
-0.0795795
-0.0756957
-0.071503
-0.0670101
-0.0622267
-0.0571586
-0.0518123
-0.0461957
-0.0403178
-0.0341885
-0.027819
-0.021221
-0.0144073
-0.00739113
-0.000186704
0.00719153
0.0147284
0.0224086
0.0302162
0.0381355
0.0461501
0.0542442
0.0624014
0.070606
0.0788419
0.0870936
0.095346
0.103584
0.111795
0.119962
0.128073
0.136116
0.144078
0.151948
0.159715
0.167369
0.1749
0.1823
0.189561
0.196676
0.203638
0.210441
0.21708
0.223551
0.229851
0.235975
0.241922
0.247689
0.253277
0.258682
0.263906
0.268948
0.273809
0.278489
0.282992
0.287318
0.291472
0.295456
0.299272
0.302922
0.306411
0.30974
0.312916
0.31594
0.318818
0.321553
0.32415
0.326612
0.328944
0.331151
0.333236
0.335204
0.337058
0.338803
0.340443
0.341983
0.343425
0.344773
0.346032
0.347205
0.348295
0.349307
0.350243
0.351106
0.3519
0.352627
0.353291
0.353894
0.354439
0.354928
0.355365
0.35575
0.356087
0.356377
0.356623
0.356826
0.356988
0.35711
0.357196
0.357245
0.357259
0.35724
0.357189
0.357107
0.356995
0.356854
0.356686
0.356492
0.356272
0.356029
0.355762
0.355475
0.355168
0.354843
0.354505
0.354155
0.353799
0.353444
0.353098
0.352771
0.352482
0.352253
0.352121
0.35213
0.352383
0.352895
0.354145
0.355005
-0.0708894
-0.0712369
-0.0717831
-0.0722993
-0.072649
-0.0728684
-0.0730203
-0.073151
-0.0732954
-0.073481
-0.0737279
-0.0740513
-0.0744625
-0.0749698
-0.0755797
-0.0762964
-0.077122
-0.0780568
-0.0790984
-0.0802424
-0.0814813
-0.082806
-0.084205
-0.0856655
-0.0871727
-0.0887111
-0.0902634
-0.091812
-0.0933381
-0.0948231
-0.0962478
-0.0975935
-0.0988411
-0.0999728
-0.10097
-0.101817
-0.102497
-0.102993
-0.103292
-0.103379
-0.103241
-0.102867
-0.102245
-0.101364
-0.100217
-0.098795
-0.0970903
-0.0950974
-0.0928112
-0.0902277
-0.0873442
-0.0841589
-0.0806706
-0.076879
-0.0727863
-0.0683977
-0.0637196
-0.0587576
-0.0535184
-0.0480095
-0.0422395
-0.0362179
-0.0299555
-0.0234635
-0.0167544
-0.00984113
-0.00273738
0.00454262
0.0119841
0.0195719
0.0272905
0.0351244
0.0430575
0.051074
0.059158
0.0672937
0.0754654
0.0836575
0.0918551
0.100044
0.108209
0.116337
0.124413
0.132426
0.140364
0.148214
0.155966
0.16361
0.171136
0.178536
0.185801
0.192924
0.199899
0.206719
0.213379
0.219875
0.226202
0.232358
0.238339
0.244145
0.249772
0.25522
0.26049
0.265581
0.270493
0.275229
0.27979
0.284179
0.288399
0.292449
0.296332
0.30005
0.303606
0.307004
0.310247
0.31334
0.316286
0.319088
0.321752
0.324281
0.326679
0.328951
0.3311
0.333131
0.335048
0.336854
0.338554
0.340152
0.341652
0.343057
0.344371
0.345598
0.346741
0.347804
0.34879
0.349702
0.350544
0.351317
0.352026
0.352673
0.35326
0.35379
0.354266
0.354691
0.355065
0.355391
0.355672
0.355909
0.356103
0.356258
0.356374
0.356452
0.356495
0.356503
0.356479
0.356422
0.356335
0.356218
0.356073
0.355901
0.355703
0.355479
0.355233
0.354964
0.354675
0.354368
0.354046
0.353712
0.353372
0.35303
0.352696
0.352379
0.352096
0.351869
0.351728
0.351709
0.351893
0.352254
0.353153
0.35339
-0.0692791
-0.0697811
-0.0706226
-0.0714167
-0.0719602
-0.0723225
-0.0725931
-0.0728296
-0.0730728
-0.0733547
-0.0736992
-0.0741235
-0.0746395
-0.075255
-0.0759748
-0.0768009
-0.0777329
-0.0787682
-0.0799025
-0.0811293
-0.0824399
-0.083824
-0.0852697
-0.086764
-0.0882924
-0.0898401
-0.0913912
-0.0929295
-0.0944378
-0.0958994
-0.0972967
-0.0986128
-0.0998303
-0.100933
-0.101903
-0.102726
-0.103385
-0.103866
-0.104154
-0.104236
-0.1041
-0.103732
-0.103123
-0.102261
-0.101137
-0.0997436
-0.0980724
-0.0961174
-0.0938731
-0.0913354
-0.0885011
-0.0853681
-0.0819353
-0.0782029
-0.074173
-0.0698493
-0.0652369
-0.0603413
-0.0551688
-0.049727
-0.0440242
-0.0380698
-0.0318743
-0.0254487
-0.0188053
-0.0119568
-0.00491668
0.00230106
0.00968181
0.0172107
0.0248723
0.0326512
0.0405317
0.048498
0.0565343
0.064625
0.0727545
0.0809073
0.0890688
0.0972246
0.10536
0.11346
0.121513
0.129506
0.137428
0.145265
0.153007
0.160645
0.168167
0.175567
0.182835
0.189965
0.196949
0.203781
0.210457
0.216971
0.22332
0.229499
0.235506
0.24134
0.246998
0.25248
0.257785
0.262914
0.267865
0.272642
0.277246
0.281678
0.28594
0.290034
0.293961
0.297725
0.301328
0.304773
0.308064
0.311205
0.314199
0.31705
0.319763
0.32234
0.324786
0.327106
0.329303
0.331381
0.333345
0.335198
0.336944
0.338587
0.340131
0.34158
0.342938
0.344207
0.345392
0.346495
0.347521
0.348472
0.349351
0.350162
0.350908
0.35159
0.352211
0.352775
0.353284
0.35374
0.354145
0.354502
0.354812
0.355077
0.355299
0.35548
0.355622
0.355725
0.355792
0.355824
0.355822
0.355788
0.355722
0.355625
0.3555
0.355346
0.355166
0.354961
0.354731
0.354478
0.354204
0.353912
0.353603
0.353281
0.352951
0.352619
0.352291
0.351978
0.351692
0.351453
0.351287
0.351217
0.351303
0.351487
0.352038
0.351761
-0.0679375
-0.0685692
-0.0696791
-0.0707403
-0.0714946
-0.0720313
-0.0724569
-0.0728372
-0.0732172
-0.0736317
-0.0741067
-0.07466
-0.0753034
-0.0760437
-0.0768843
-0.0778254
-0.0788649
-0.0799988
-0.0812209
-0.0825236
-0.0838974
-0.0853321
-0.0868158
-0.0883358
-0.0898786
-0.0914302
-0.092976
-0.094501
-0.0959896
-0.0974263
-0.0987948
-0.10008
-0.101265
-0.102334
-0.103273
-0.104067
-0.104699
-0.105156
-0.105425
-0.105491
-0.105342
-0.104967
-0.104353
-0.103491
-0.102371
-0.100984
-0.0993231
-0.0973811
-0.0951527
-0.0926336
-0.0898202
-0.0867105
-0.0833034
-0.0795991
-0.0755993
-0.0713073
-0.0667275
-0.0618651
-0.0567265
-0.0513191
-0.0456513
-0.0397322
-0.0335723
-0.0271827
-0.0205753
-0.0137627
-0.00675843
0.000423682
0.00776917
0.0152632
0.0228907
0.0306361
0.038484
0.0464186
0.0544244
0.0624857
0.0705871
0.0787133
0.0868498
0.0949823
0.103096
0.111176
0.11921
0.127188
0.135095
0.142921
0.150654
0.158283
0.165801
0.173197
0.180465
0.187596
0.194583
0.201422
0.208105
0.214629
0.220989
0.227183
0.233207
0.239059
0.244738
0.250242
0.255571
0.260724
0.265702
0.270507
0.275139
0.2796
0.283893
0.288017
0.291977
0.295773
0.29941
0.30289
0.306217
0.309393
0.312424
0.315312
0.318061
0.320676
0.323159
0.325516
0.327751
0.329866
0.331867
0.333756
0.335539
0.337218
0.338798
0.340283
0.341675
0.342979
0.344197
0.345334
0.346393
0.347376
0.348288
0.34913
0.349905
0.350617
0.351268
0.35186
0.352397
0.35288
0.353312
0.353694
0.354029
0.354318
0.354565
0.354769
0.354933
0.355058
0.355146
0.355199
0.355216
0.355201
0.355153
0.355075
0.354967
0.35483
0.354666
0.354476
0.35426
0.354021
0.353761
0.35348
0.353182
0.35287
0.352547
0.35222
0.351893
0.351577
0.351282
0.351022
0.350818
0.350683
0.350655
0.350657
0.350894
0.350199
-0.0671667
-0.0678962
-0.0691999
-0.0704698
-0.0714121
-0.0721207
-0.0727076
-0.0732408
-0.0737671
-0.0743223
-0.0749327
-0.0756163
-0.0763845
-0.0772437
-0.0781961
-0.0792411
-0.0803752
-0.0815932
-0.0828885
-0.0842531
-0.0856776
-0.0871516
-0.0886635
-0.0902015
-0.091753
-0.093305
-0.0948436
-0.0963548
-0.097824
-0.0992369
-0.100579
-0.101834
-0.102989
-0.104027
-0.104935
-0.105699
-0.106302
-0.106733
-0.106976
-0.10702
-0.10685
-0.106456
-0.105826
-0.10495
-0.103818
-0.102421
-0.100751
-0.0988026
-0.0965691
-0.0940463
-0.0912307
-0.0881201
-0.0847136
-0.0810115
-0.0770154
-0.0727283
-0.0681543
-0.0632986
-0.0581675
-0.0527685
-0.0471098
-0.0412008
-0.0350518
-0.0286739
-0.0220791
-0.0152799
-0.00828987
-0.00112269
0.0062072
0.0136851
0.0212958
0.0290241
0.0368545
0.0447715
0.0527595
0.0608029
0.0688866
0.0769954
0.0851149
0.0932303
0.101327
0.109392
0.117412
0.125375
0.13327
0.141084
0.148806
0.156426
0.163936
0.171326
0.178588
0.185715
0.1927
0.199538
0.206222
0.212749
0.219113
0.225313
0.231344
0.237206
0.242895
0.24841
0.253752
0.25892
0.263914
0.268736
0.273386
0.277867
0.282179
0.286324
0.290306
0.294126
0.297786
0.301291
0.304643
0.307846
0.310903
0.313819
0.316596
0.319238
0.321751
0.324136
0.326399
0.328544
0.330573
0.332492
0.334304
0.336012
0.337621
0.339134
0.340555
0.341887
0.343133
0.344298
0.345384
0.346394
0.347332
0.3482
0.349001
0.349738
0.350414
0.351031
0.351591
0.352098
0.352552
0.352957
0.353313
0.353624
0.353891
0.354116
0.354299
0.354444
0.354551
0.354621
0.354656
0.354658
0.354627
0.354565
0.354472
0.35435
0.3542
0.354023
0.353821
0.353594
0.353344
0.353073
0.352784
0.352478
0.352161
0.351835
0.351506
0.351182
0.350871
0.350583
0.350333
0.350123
0.349976
0.3498
0.349761
0.348726
-0.0671223
-0.0678992
-0.0693039
-0.0707032
-0.0717846
-0.0726355
-0.0733638
-0.074035
-0.0746943
-0.0753769
-0.0761086
-0.0769073
-0.0777839
-0.078744
-0.0797889
-0.0809174
-0.0821263
-0.0834099
-0.0847612
-0.0861719
-0.0876329
-0.0891345
-0.0906657
-0.0922152
-0.093771
-0.0953207
-0.0968511
-0.098349
-0.0998005
-0.101192
-0.10251
-0.10374
-0.104867
-0.105878
-0.106758
-0.107492
-0.108067
-0.108469
-0.108685
-0.1087
-0.108504
-0.108084
-0.107428
-0.106527
-0.10537
-0.103949
-0.102257
-0.100286
-0.0980303
-0.0954863
-0.0926502
-0.0895199
-0.0860947
-0.0823748
-0.0783619
-0.074059
-0.0694702
-0.0646006
-0.0594569
-0.0540462
-0.0483772
-0.0424592
-0.0363026
-0.0299186
-0.0233191
-0.0165169
-0.00952528
-0.00235807
0.00497034
0.0124453
0.0200517
0.0277743
0.0355978
0.0435066
0.0514854
0.0595188
0.0675916
0.0756889
0.0837961
0.0918985
0.0999819
0.108033
0.11604
0.123991
0.131872
0.139674
0.147384
0.154993
0.162491
0.169871
0.177124
0.184243
0.191221
0.198052
0.204732
0.211254
0.217617
0.223815
0.229846
0.235708
0.2414
0.246919
0.252266
0.25744
0.262442
0.267272
0.271932
0.276423
0.280746
0.284904
0.288899
0.292734
0.29641
0.299931
0.303301
0.306522
0.309598
0.312533
0.31533
0.317994
0.320527
0.322934
0.325219
0.327386
0.329438
0.331379
0.333214
0.334945
0.336577
0.338113
0.339557
0.340912
0.342181
0.343369
0.344477
0.34551
0.34647
0.34736
0.348183
0.348941
0.349638
0.350276
0.350857
0.351383
0.351858
0.352282
0.352657
0.352987
0.353272
0.353514
0.353715
0.353877
0.354
0.354087
0.354138
0.354155
0.354139
0.354091
0.354012
0.353903
0.353766
0.353601
0.35341
0.353193
0.352953
0.35269
0.352408
0.352107
0.351791
0.351464
0.35113
0.350794
0.350462
0.350141
0.349838
0.34955
0.349283
0.348939
0.348658
0.347348
-0.0678056
-0.0685809
-0.0699971
-0.0714426
-0.0726037
-0.0735522
-0.0743862
-0.075165
-0.0759307
-0.0767163
-0.0775458
-0.0784354
-0.0793954
-0.0804315
-0.0815452
-0.0827348
-0.0839965
-0.0853251
-0.0867139
-0.0881553
-0.0896403
-0.0911593
-0.0927019
-0.0942572
-0.0958135
-0.0973588
-0.0988805
-0.100366
-0.101802
-0.103176
-0.104473
-0.105681
-0.106785
-0.10777
-0.108623
-0.109329
-0.109876
-0.110248
-0.110433
-0.110418
-0.110189
-0.109737
-0.109048
-0.108113
-0.106923
-0.105467
-0.10374
-0.101734
-0.0994435
-0.0968643
-0.0939932
-0.0908284
-0.0873692
-0.083616
-0.0795707
-0.0752364
-0.0706172
-0.0657187
-0.0605474
-0.0551107
-0.0494175
-0.043477
-0.0373
-0.0308975
-0.0242818
-0.0174655
-0.010462
-0.00328509
0.00405077
0.011531
0.0191405
0.0268642
0.0346868
0.0425929
0.0505672
0.0585943
0.0666594
0.0747477
0.0828444
0.0909349
0.0990058
0.107044
0.115037
0.122973
0.13084
0.138627
0.146322
0.153916
0.1614
0.168766
0.176006
0.183112
0.190078
0.196898
0.203567
0.21008
0.216433
0.222623
0.228648
0.234504
0.240191
0.245707
0.251052
0.256225
0.261227
0.266059
0.270721
0.275215
0.279543
0.283707
0.287709
0.291551
0.295236
0.298767
0.302147
0.30538
0.308469
0.311417
0.314228
0.316906
0.319454
0.321877
0.324179
0.326362
0.328432
0.330391
0.332243
0.333993
0.335643
0.337197
0.33866
0.340034
0.341322
0.342528
0.343656
0.344707
0.345686
0.346595
0.347436
0.348213
0.348928
0.349584
0.350182
0.350726
0.351218
0.351659
0.352052
0.352398
0.352699
0.352957
0.353174
0.353351
0.353489
0.35359
0.353656
0.353686
0.353684
0.353649
0.353582
0.353486
0.35336
0.353206
0.353024
0.352817
0.352585
0.352329
0.352051
0.351754
0.351438
0.351108
0.350765
0.350414
0.350058
0.3497
0.349342
0.348973
0.34859
0.348089
0.3476
0.346068
-0.0691198
-0.0698523
-0.0712044
-0.0726209
-0.0738014
-0.0747989
-0.0756977
-0.0765487
-0.0773883
-0.0782455
-0.0791428
-0.0800952
-0.0811121
-0.0821982
-0.0833551
-0.084582
-0.0858756
-0.0872311
-0.0886417
-0.0901001
-0.0915974
-0.0931246
-0.0946713
-0.0962269
-0.0977798
-0.0993184
-0.100831
-0.102304
-0.103727
-0.105085
-0.106365
-0.107552
-0.108634
-0.109596
-0.110423
-0.111102
-0.11162
-0.111961
-0.112113
-0.112063
-0.111799
-0.111308
-0.11058
-0.109604
-0.108371
-0.106872
-0.1051
-0.103048
-0.100712
-0.098086
-0.0951686
-0.0919578
-0.0884529
-0.0846549
-0.0805659
-0.076189
-0.0715289
-0.066591
-0.0613822
-0.0559102
-0.0501837
-0.0442125
-0.0380073
-0.0315792
-0.0249406
-0.0181042
-0.0110834
-0.00389211
0.0034554
0.0109445
0.0185602
0.0262875
0.0341111
0.0420157
0.0499862
0.0580075
0.0660646
0.0741428
0.0822275
0.0903047
0.0983612
0.106384
0.114361
0.122279
0.130129
0.137897
0.145574
0.153149
0.160614
0.167961
0.175183
0.18227
0.189219
0.196021
0.202674
0.209171
0.21551
0.221686
0.227698
0.233542
0.239219
0.244725
0.250061
0.255227
0.260223
0.26505
0.269708
0.2742
0.278527
0.28269
0.286693
0.290537
0.294225
0.29776
0.301146
0.304384
0.30748
0.310436
0.313256
0.315944
0.318503
0.320938
0.323251
0.325447
0.327529
0.329501
0.331368
0.333132
0.334797
0.336366
0.337844
0.339233
0.340537
0.341759
0.342903
0.34397
0.344965
0.34589
0.346747
0.34754
0.348271
0.348943
0.349557
0.350117
0.350624
0.35108
0.351488
0.351849
0.352165
0.352437
0.352668
0.352859
0.353011
0.353125
0.353204
0.353247
0.353257
0.353234
0.353179
0.353093
0.352978
0.352834
0.352661
0.352462
0.352237
0.351987
0.351713
0.351417
0.3511
0.350765
0.350412
0.350043
0.349661
0.349263
0.348848
0.348399
0.347906
0.347263
0.346593
0.344882
-0.0709148
-0.0715742
-0.0728056
-0.0741322
-0.0752796
-0.0762796
-0.0772002
-0.0780838
-0.0789617
-0.0798586
-0.0807932
-0.081779
-0.082825
-0.0839364
-0.0851149
-0.0863596
-0.0876674
-0.0890335
-0.0904517
-0.0919148
-0.0934144
-0.0949412
-0.0964848
-0.0980349
-0.0995803
-0.10111
-0.102612
-0.104075
-0.105484
-0.106827
-0.10809
-0.109259
-0.110319
-0.111257
-0.112059
-0.11271
-0.113196
-0.113503
-0.113618
-0.113529
-0.113223
-0.112688
-0.111913
-0.110889
-0.109605
-0.108054
-0.106229
-0.104123
-0.101731
-0.0990508
-0.0960786
-0.0928133
-0.0892549
-0.0854044
-0.0812643
-0.0768382
-0.0721307
-0.0671477
-0.0618962
-0.0563842
-0.0506206
-0.0446151
-0.0383787
-0.0319227
-0.0252595
-0.0184017
-0.011363
-0.00415698
0.00320184
0.0106989
0.0183194
0.0260483
0.0338707
0.0417713
0.0497352
0.0577474
0.0657933
0.0738579
0.0819271
0.0899873
0.0980254
0.106028
0.113984
0.121881
0.129708
0.137452
0.145104
0.152655
0.160096
0.167418
0.174615
0.181678
0.188603
0.195382
0.202012
0.208488
0.214806
0.220962
0.226955
0.232782
0.238442
0.243933
0.249255
0.254408
0.259392
0.264208
0.268858
0.273341
0.277661
0.281819
0.285818
0.289659
0.293345
0.29688
0.300266
0.303506
0.306605
0.309565
0.31239
0.315083
0.317649
0.320091
0.322412
0.324617
0.326709
0.328692
0.330569
0.332344
0.33402
0.335602
0.337092
0.338495
0.339812
0.341047
0.342204
0.343286
0.344294
0.345233
0.346104
0.346912
0.347657
0.348343
0.348971
0.349545
0.350066
0.350536
0.350958
0.351332
0.351662
0.351948
0.352192
0.352395
0.35256
0.352687
0.352777
0.352832
0.352854
0.352842
0.352798
0.352722
0.352617
0.352481
0.352318
0.352126
0.351907
0.351661
0.351391
0.351095
0.350776
0.350433
0.350069
0.349681
0.34927
0.348832
0.34836
0.347834
0.347238
0.346466
0.34564
0.343784
-0.073026
-0.0735892
-0.0746573
-0.0758456
-0.0769133
-0.0778735
-0.0787775
-0.0796581
-0.0805401
-0.0814445
-0.0823877
-0.0833818
-0.0844346
-0.0855508
-0.0867318
-0.0879769
-0.0892833
-0.0906465
-0.0920604
-0.0935175
-0.0950092
-0.0965267
-0.0980601
-0.0995994
-0.101134
-0.102653
-0.104144
-0.105594
-0.106989
-0.108316
-0.10956
-0.110708
-0.111745
-0.112657
-0.113428
-0.114046
-0.114496
-0.114764
-0.114836
-0.114701
-0.114346
-0.113759
-0.11293
-0.111849
-0.110508
-0.108898
-0.107012
-0.104845
-0.102392
-0.0996506
-0.0966181
-0.0932935
-0.0896772
-0.0857705
-0.0815764
-0.0770985
-0.072342
-0.0673129
-0.0620184
-0.0564666
-0.0506669
-0.044629
-0.0383638
-0.0318827
-0.0251981
-0.0183228
-0.0112702
-0.00405401
0.00331142
0.0108117
0.0184319
0.0261575
0.0339733
0.0418644
0.049816
0.0578133
0.0658416
0.0738861
0.0819332
0.0899701
0.0979831
0.105959
0.113887
0.121756
0.129552
0.137266
0.144887
0.152406
0.159815
0.167106
0.174272
0.181305
0.188199
0.194949
0.20155
0.207998
0.214289
0.22042
0.226388
0.232191
0.237828
0.243298
0.248601
0.253735
0.258703
0.263504
0.268139
0.27261
0.276919
0.281067
0.285056
0.28889
0.292571
0.296101
0.299484
0.302722
0.30582
0.30878
0.311606
0.314302
0.316872
0.319318
0.321644
0.323855
0.325954
0.327944
0.329829
0.331613
0.3333
0.334891
0.336392
0.337805
0.339133
0.34038
0.341549
0.342642
0.343663
0.344615
0.345499
0.346319
0.347077
0.347775
0.348417
0.349004
0.349537
0.350021
0.350455
0.350842
0.351184
0.351482
0.351739
0.351954
0.352131
0.352269
0.352372
0.352438
0.35247
0.352469
0.352435
0.352369
0.352273
0.352146
0.35199
0.351805
0.351592
0.351351
0.351082
0.350786
0.350464
0.350114
0.349736
0.349329
0.348889
0.34841
0.347882
0.347283
0.346591
0.345705
0.344743
0.34277
-0.075278
-0.0757344
-0.0766168
-0.0776343
-0.0785857
-0.0794688
-0.0803191
-0.0811624
-0.082018
-0.0829029
-0.0838306
-0.084811
-0.0858506
-0.0869535
-0.088121
-0.0893523
-0.0906439
-0.0919913
-0.0933884
-0.0948283
-0.0963029
-0.0978036
-0.0993212
-0.100846
-0.102367
-0.103871
-0.105347
-0.106779
-0.108155
-0.10946
-0.11068
-0.111801
-0.112807
-0.113685
-0.114418
-0.114995
-0.1154
-0.115619
-0.11564
-0.115451
-0.115038
-0.114392
-0.113501
-0.112357
-0.110951
-0.109275
-0.107324
-0.105092
-0.102576
-0.0997716
-0.0966777
-0.0932936
-0.08962
-0.0856587
-0.0814127
-0.0768861
-0.0720843
-0.0670134
-0.0616809
-0.056095
-0.050265
-0.0442008
-0.0379133
-0.0314141
-0.0247155
-0.0178302
-0.0107716
-0.00355329
0.00381044
0.0113053
0.0189167
0.0266299
0.0344301
0.0423027
0.0502328
0.0582059
0.0662071
0.0742224
0.0822392
0.0902439
0.0982229
0.106164
0.114056
0.121887
0.129645
0.137319
0.144901
0.152381
0.159751
0.167003
0.17413
0.181125
0.187983
0.194696
0.201262
0.207675
0.213933
0.220031
0.225969
0.231743
0.237352
0.242796
0.248073
0.253185
0.25813
0.262911
0.267528
0.271982
0.276275
0.280409
0.284386
0.288209
0.29188
0.295402
0.298778
0.302011
0.305105
0.308063
0.310888
0.313583
0.316153
0.318601
0.320931
0.323146
0.325249
0.327245
0.329136
0.330927
0.332621
0.334221
0.33573
0.337153
0.338491
0.339748
0.340927
0.342031
0.343063
0.344026
0.344921
0.345753
0.346523
0.347233
0.347887
0.348486
0.349032
0.349527
0.349973
0.350372
0.350726
0.351036
0.351304
0.351532
0.35172
0.35187
0.351983
0.35206
0.352103
0.352111
0.352087
0.352031
0.351944
0.351825
0.351677
0.351498
0.35129
0.351053
0.350786
0.350489
0.350162
0.349805
0.349413
0.348986
0.348517
0.347999
0.347418
0.346749
0.34597
0.344981
0.343901
0.341834
-0.0775214
-0.0778687
-0.0785568
-0.079384
-0.0801924
-0.0809694
-0.0817376
-0.0825155
-0.0833177
-0.0841574
-0.0850457
-0.0859908
-0.0869979
-0.0880699
-0.0892072
-0.0904086
-0.0916707
-0.0929892
-0.0943582
-0.0957714
-0.0972212
-0.0986988
-0.100194
-0.101697
-0.103196
-0.104676
-0.106126
-0.10753
-0.108876
-0.110148
-0.111332
-0.112413
-0.113377
-0.114208
-0.114893
-0.115417
-0.115766
-0.115927
-0.115888
-0.115635
-0.115158
-0.114445
-0.113488
-0.112277
-0.110803
-0.109061
-0.107044
-0.104748
-0.102169
-0.0993039
-0.096152
-0.0927128
-0.0889872
-0.0849774
-0.0806866
-0.0761192
-0.0712805
-0.0661769
-0.060816
-0.055206
-0.0493563
-0.0432768
-0.0369786
-0.0304729
-0.0237721
-0.0168889
-0.00983644
-0.00262832
0.00472143
0.0121986
0.0197888
0.0274775
0.0352502
0.0430922
0.0509888
0.0589255
0.0668882
0.074864
0.0828395
0.0908008
0.0987349
0.10663
0.114476
0.12226
0.129969
0.137595
0.145129
0.152561
0.159883
0.167088
0.174169
0.181118
0.187931
0.194601
0.201124
0.207496
0.213714
0.219775
0.225675
0.231414
0.23699
0.242402
0.24765
0.252734
0.257653
0.262409
0.267003
0.271436
0.275709
0.279826
0.283787
0.287595
0.291254
0.294765
0.298132
0.301357
0.304444
0.307397
0.310218
0.312911
0.31548
0.317928