/*--------------------------------*- C++ -*----------------------------------*\
  =========                 |
  \\      /  F ield         | OpenFOAM: The Open Source CFD Toolbox
   \\    /   O peration     | Website:  https://openfoam.org
    \\  /    A nd           | Version:  10
     \\/     M anipulation  |
\*---------------------------------------------------------------------------*/
FoamFile
{
    format      ascii;
    class       surfaceScalarField;
    location    "234";
    object      phi;
}
// * * * * * * * * * * * * * * * * * * * * * * * * * * * * * * * * * * * * * //

dimensions      [0 3 -1 0 0 0 0];

internalField   nonuniform List<scalar> 
24170
(
3.54198e-08
-1.95109e-08
5.52476e-08
-1.98279e-08
7.16403e-08
-1.63927e-08
8.56321e-08
-1.39918e-08
9.78778e-08
-1.22458e-08
1.08277e-07
-1.03997e-08
1.17083e-07
-8.80522e-09
1.24569e-07
-7.48674e-09
1.30975e-07
-6.40539e-09
1.36501e-07
-5.52615e-09
1.41318e-07
-4.81703e-09
1.45575e-07
-4.25676e-09
1.49414e-07
-3.83958e-09
1.53e-07
-3.58567e-09
1.5657e-07
-3.57063e-09
1.60653e-07
-4.08231e-09
1.66546e-07
-5.89381e-09
-1.40463e-08
1.80592e-07
7.59589e-08
-4.37793e-08
9.99391e-08
-4.38083e-08
1.20428e-07
-3.68813e-08
1.38338e-07
-3.19022e-08
1.53841e-07
-2.77487e-08
1.67276e-07
-2.3835e-08
1.78933e-07
-2.04626e-08
1.89086e-07
-1.76399e-08
1.9798e-07
-1.52991e-08
2.05825e-07
-1.3371e-08
2.12802e-07
-1.17946e-08
2.19074e-07
-1.05285e-08
2.24794e-07
-9.55965e-09
2.3013e-07
-8.92169e-09
2.35299e-07
-8.73951e-09
2.40616e-07
-9.39942e-09
2.46549e-07
-1.18275e-08
-1.84817e-08
2.50985e-07
1.13649e-07
-6.33371e-08
1.37393e-07
-6.75526e-08
1.59151e-07
-5.86388e-08
1.78165e-07
-5.09169e-08
1.94654e-07
-4.42369e-08
2.09074e-07
-3.82556e-08
2.21723e-07
-3.31113e-08
2.32855e-07
-2.87725e-08
2.42702e-07
-2.51453e-08
2.51462e-07
-2.21314e-08
2.59312e-07
-1.96449e-08
2.6641e-07
-1.76262e-08
2.72903e-07
-1.60522e-08
2.78938e-07
-1.49574e-08
2.84673e-07
-1.44739e-08
2.90226e-07
-1.49528e-08
2.95449e-07
-1.70503e-08
-2.16069e-08
2.98574e-07
1.57509e-07
-7.69117e-08
1.78538e-07
-8.85819e-08
1.99721e-07
-7.98222e-08
2.18729e-07
-6.99246e-08
2.35439e-07
-6.09471e-08
2.50201e-07
-5.30175e-08
2.63269e-07
-4.618e-08
2.74869e-07
-4.03725e-08
2.85206e-07
-3.54819e-08
2.94462e-07
-3.13876e-08
3.02801e-07
-2.79839e-08
3.1037e-07
-2.51949e-08
3.17302e-07
-2.29848e-08
3.23721e-07
-2.13762e-08
3.29723e-07
-2.04756e-08
3.35305e-07
-2.05347e-08
3.40158e-07
-2.19038e-08
-2.4649e-08
3.432e-07
2.09614e-07
-8.44317e-08
2.2675e-07
-1.05718e-07
2.46024e-07
-9.90958e-08
2.64157e-07
-8.80577e-08
2.80484e-07
-7.72743e-08
2.9511e-07
-6.76427e-08
3.08194e-07
-5.92644e-08
3.1991e-07
-5.20882e-08
3.30426e-07
-4.59984e-08
3.39901e-07
-4.08625e-08
3.48479e-07
-3.65615e-08
3.5629e-07
-3.30058e-08
3.63449e-07
-3.01448e-08
3.70053e-07
-2.79797e-08
3.76151e-07
-2.65737e-08
3.81683e-07
-2.60662e-08
3.8635e-07
-2.65709e-08
-2.78201e-08
3.89521e-07
2.71485e-07
-8.6429e-08
2.83983e-07
-1.18216e-07
3.00289e-07
-1.15402e-07
3.16726e-07
-1.04494e-07
3.32051e-07
-9.25998e-08
3.46055e-07
-8.16469e-08
3.58755e-07
-7.19643e-08
3.70245e-07
-6.35781e-08
3.80645e-07
-5.63981e-08
3.90077e-07
-5.02948e-08
3.9866e-07
-4.51446e-08
4.06503e-07
-4.08481e-08
4.13698e-07
-3.73399e-08
4.20313e-07
-3.45953e-08
4.26368e-07
-3.26285e-08
4.31782e-07
-3.14806e-08
4.3632e-07
-3.11086e-08
-3.11399e-08
4.3964e-07
3.44474e-07
-8.38465e-08
3.5189e-07
-1.25632e-07
3.64363e-07
-1.27876e-07
3.78287e-07
-1.18418e-07
3.91954e-07
-1.06267e-07
4.04807e-07
-9.45002e-08
4.16683e-07
-8.38404e-08
4.27574e-07
-7.4469e-08
4.37534e-07
-6.63577e-08
4.4664e-07
-5.94008e-08
4.54977e-07
-5.34812e-08
4.62624e-07
-4.84961e-08
4.69652e-07
-4.43673e-08
4.76101e-07
-4.10447e-08
4.8197e-07
-3.84975e-08
4.87182e-07
-3.66922e-08
4.91571e-07
-3.54973e-08
-3.4548e-08
4.94979e-07
4.29734e-07
-7.78423e-08
4.31976e-07
-1.27874e-07
4.39963e-07
-1.35863e-07
4.50591e-07
-1.29045e-07
4.61918e-07
-1.17594e-07
4.7304e-07
-1.05623e-07
4.83602e-07
-9.44021e-08
4.93473e-07
-8.43405e-08
5.02627e-07
-7.55118e-08
5.11085e-07
-6.78589e-08
5.1889e-07
-6.12858e-08
5.26088e-07
-5.56946e-08
5.32721e-07
-5.09995e-08
5.38806e-07
-4.71299e-08
5.44328e-07
-4.40195e-08
5.49221e-07
-4.15858e-08
5.53383e-07
-3.96592e-08
-3.79281e-08
5.56763e-07
5.28219e-07
-6.96234e-08
5.2557e-07
-1.25225e-07
5.28695e-07
-1.38989e-07
5.35352e-07
-1.35701e-07
5.4365e-07
-1.25892e-07
5.52429e-07
-1.14402e-07
5.61141e-07
-1.03113e-07
5.69524e-07
-9.2724e-08
5.7746e-07
-8.34483e-08
5.84905e-07
-7.53037e-08
5.91852e-07
-6.82323e-08
5.98309e-07
-6.2152e-08
6.04287e-07
-5.69771e-08
6.09781e-07
-5.26242e-08
6.14766e-07
-4.90049e-08
6.19191e-07
-4.60101e-08
6.22996e-07
-4.3465e-08
-4.11213e-08
6.26189e-07
6.40665e-07
-6.03165e-08
6.33748e-07
-1.18308e-07
6.31977e-07
-1.37218e-07
6.34188e-07
-1.37913e-07
6.3882e-07
-1.30524e-07
6.44643e-07
-1.20225e-07
6.50941e-07
-1.09411e-07
6.5733e-07
-9.91128e-08
6.63595e-07
-8.9713e-08
6.69618e-07
-8.13273e-08
6.7534e-07
-7.39538e-08
6.80726e-07
-6.75383e-08
6.85754e-07
-6.2005e-08
6.90398e-07
-5.72682e-08
6.94623e-07
-5.32301e-08
6.98387e-07
-4.97738e-08
7.01661e-07
-4.67385e-08
-4.39321e-08
7.04471e-07
7.67548e-07
-5.0859e-08
7.57262e-07
-1.08022e-07
7.50897e-07
-1.30853e-07
7.48468e-07
-1.35483e-07
7.48961e-07
-1.31017e-07
7.5127e-07
-1.22535e-07
7.54602e-07
-1.12743e-07
7.58472e-07
-1.02983e-07
7.62581e-07
-9.38212e-08
7.6674e-07
-8.54862e-08
7.70832e-07
-7.80466e-08
7.74782e-07
-7.14878e-08
7.78531e-07
-6.57544e-08
7.82032e-07
-6.07688e-08
7.85238e-07
-5.64363e-08
7.8811e-07
-5.26458e-08
7.90632e-07
-4.92611e-08
-4.61337e-08
7.92834e-07
7.575e-07
-4.2978e-08
7.4712e-07
-9.76425e-08
7.38669e-07
-1.22402e-07
7.33125e-07
-1.29939e-07
7.30176e-07
-1.28068e-07
7.29097e-07
-1.21455e-07
7.29253e-07
-1.129e-07
7.30199e-07
-1.0393e-07
7.31635e-07
-9.52574e-08
7.3336e-07
-8.72106e-08
7.35235e-07
-7.99215e-08
7.37162e-07
-7.34155e-08
7.39069e-07
-6.76614e-08
7.40897e-07
-6.2596e-08
7.42596e-07
-5.81353e-08
7.44131e-07
-5.41808e-08
7.45481e-07
-5.06113e-08
-4.73423e-08
7.46689e-07
1.00243e-06
-3.48559e-08
9.89288e-07
-8.45013e-08
9.76821e-07
-1.09934e-07
9.66851e-07
-1.1997e-07
9.59652e-07
-1.20869e-07
9.54772e-07
-1.16575e-07
9.5163e-07
-1.09758e-07
9.49732e-07
-1.02032e-07
9.48714e-07
-9.42387e-08
9.4831e-07
-8.68074e-08
9.48329e-07
-7.99401e-08
9.48625e-07
-7.37119e-08
9.49089e-07
-6.81247e-08
9.49631e-07
-6.31388e-08
9.50185e-07
-5.86891e-08
9.50701e-07
-5.46964e-08
9.51156e-07
-5.10663e-08
-4.77515e-08
9.51565e-07
1.3276e-06
-2.69595e-08
1.31218e-06
-6.90818e-08
1.29554e-06
-9.32912e-08
1.28034e-06
-1.04776e-07
1.2676e-06
-1.08132e-07
1.25737e-06
-1.06343e-07
1.2493e-06
-1.01682e-07
1.24295e-06
-9.56855e-08
1.23795e-06
-8.92422e-08
1.234e-06
-8.28542e-08
1.23085e-06
-7.67866e-08
1.2283e-06
-7.11654e-08
1.22621e-06
-6.60324e-08
1.22445e-06
-6.13791e-08
1.22293e-06
-5.71674e-08
1.22157e-06
-5.33436e-08
1.22035e-06
-4.98456e-08
-4.66476e-08
1.21925e-06
1.75355e-06
-1.95761e-08
1.73673e-06
-5.22673e-08
1.71643e-06
-7.29846e-08
1.69587e-06
-8.42173e-08
1.67677e-06
-8.90297e-08
1.65984e-06
-8.94173e-08
1.64518e-06
-8.70211e-08
1.63259e-06
-8.30937e-08
1.62179e-06
-7.84414e-08
1.6125e-06
-7.35613e-08
1.60445e-06
-6.87448e-08
1.59744e-06
-6.41532e-08
1.59127e-06
-5.98636e-08
1.58579e-06
-5.59002e-08
1.58088e-06
-5.22555e-08
1.57644e-06
-4.89046e-08
1.57241e-06
-4.58164e-08
-4.29838e-08
1.56875e-06
2.29919e-06
-1.26974e-08
2.28173e-06
-3.48121e-08
2.25868e-06
-4.99372e-08
2.23341e-06
-5.89401e-08
2.20803e-06
-6.36481e-08
2.18386e-06
-6.52473e-08
2.16152e-06
-6.46877e-08
2.14121e-06
-6.27855e-08
2.1229e-06
-6.01274e-08
2.10644e-06
-5.70986e-08
2.09164e-06
-5.39462e-08
2.07831e-06
-5.08239e-08
2.06627e-06
-4.78197e-08
2.05534e-06
-4.49775e-08
2.0454e-06
-4.23133e-08
2.03632e-06
-3.98271e-08
2.02802e-06
-3.75133e-08
-3.53815e-08
2.02042e-06
2.97233e-06
-5.93748e-09
2.9543e-06
-1.67856e-08
2.92906e-06
-2.46945e-08
2.89986e-06
-2.9738e-08
2.86895e-06
-3.27471e-08
2.83796e-06
-3.42555e-08
2.80792e-06
-3.46412e-08
2.7794e-06
-3.42657e-08
2.75268e-06
-3.34159e-08
2.72787e-06
-3.22869e-08
2.70494e-06
-3.101e-08
2.68379e-06
-2.96737e-08
2.6643e-06
-2.83352e-08
2.64635e-06
-2.70282e-08
2.62981e-06
-2.5771e-08
2.61456e-06
-2.45735e-08
2.60049e-06
-2.34422e-08
-2.23972e-08
2.5875e-06
3.74866e-06
1.5391e-09
3.72912e-06
2.75671e-09
3.70103e-06
3.40146e-09
3.66765e-06
3.64046e-09
3.63138e-06
3.52183e-09
3.59397e-06
3.15398e-09
3.55669e-06
2.6409e-09
3.52037e-06
2.04548e-09
3.48555e-06
1.40626e-09
3.45251e-06
7.52307e-10
3.4214e-06
1.05464e-10
3.39224e-06
-5.19003e-10
3.36502e-06
-1.11074e-09
3.33965e-06
-1.66311e-09
3.31606e-06
-2.17245e-09
3.29412e-06
-2.63855e-09
3.27374e-06
-3.06536e-09
-3.46788e-09
3.25481e-06
4.53044e-06
8.60915e-09
4.50779e-06
2.5408e-08
4.47411e-06
3.70753e-08
4.4338e-06
4.39516e-08
4.38994e-06
4.73826e-08
4.34474e-06
4.83523e-08
4.29978e-06
4.7598e-08
4.2561e-06
4.57296e-08
4.2143e-06
4.32033e-08
4.17472e-06
4.03318e-08
4.13751e-06
3.73234e-08
4.10267e-06
3.43161e-08
4.07016e-06
3.13977e-08
4.03988e-06
2.86212e-08
4.01169e-06
2.60155e-08
3.98546e-06
2.3593e-08
3.96104e-06
2.13532e-08
1.92769e-08
3.93829e-06
3.11439e-06
1.81392e-08
3.09193e-06
4.78714e-08
3.06212e-06
6.68827e-08
3.02898e-06
7.70954e-08
2.9951e-06
8.126e-08
2.96213e-06
8.13216e-08
2.93098e-06
7.8747e-08
2.90206e-06
7.46534e-08
2.87546e-06
6.97977e-08
2.85113e-06
6.46604e-08
2.82892e-06
5.95325e-08
2.80865e-06
5.45858e-08
2.79014e-06
4.99152e-08
2.77319e-06
4.55657e-08
2.75766e-06
4.15521e-08
2.74338e-06
3.78703e-08
2.73023e-06
3.45042e-08
3.14269e-08
2.71808e-06
2.47121e-06
2.86929e-08
2.44728e-06
7.18078e-08
2.41839e-06
9.57646e-08
2.38916e-06
1.06325e-07
2.36183e-06
1.08593e-07
2.33734e-06
1.0581e-07
2.31587e-06
1.00218e-07
2.2972e-06
9.33299e-08
2.28096e-06
8.60311e-08
2.26681e-06
7.88121e-08
2.25441e-06
7.19312e-08
2.24348e-06
6.55146e-08
2.23379e-06
5.96104e-08
2.22513e-06
5.42223e-08
2.21735e-06
4.93296e-08
2.21032e-06
4.48999e-08
2.20393e-06
4.0895e-08
3.72718e-08
2.19809e-06
1.9037e-06
4.17116e-08
1.87974e-06
9.57723e-08
1.85545e-06
1.20046e-07
1.83446e-06
1.2732e-07
1.81757e-06
1.25479e-07
1.80451e-06
1.18873e-07
1.79457e-06
1.10154e-07
1.78703e-06
1.00871e-07
1.78129e-06
9.17775e-08
1.77688e-06
8.3219e-08
1.77347e-06
7.534e-08
1.77081e-06
6.81789e-08
1.7687e-06
6.17172e-08
1.76701e-06
5.59102e-08
1.76564e-06
5.07016e-08
1.76451e-06
4.60331e-08
1.76355e-06
4.18479e-08
3.80915e-08
1.76273e-06
1.42686e-06
5.67369e-08
1.40668e-06
1.15953e-07
1.39146e-06
1.35265e-07
1.38202e-06
1.3676e-07
1.37734e-06
1.30165e-07
1.37604e-06
1.20171e-07
1.37692e-06
1.09276e-07
1.37912e-06
9.86673e-08
1.3821e-06
8.88027e-08
1.38548e-06
7.98339e-08
1.38904e-06
7.17795e-08
1.39263e-06
6.45934e-08
1.39614e-06
5.8202e-08
1.39953e-06
5.25238e-08
1.40275e-06
4.74784e-08
1.40579e-06
4.29907e-08
1.40865e-06
3.89945e-08
3.54307e-08
1.41131e-06
1.04091e-06
7.15722e-08
1.02911e-06
1.27751e-07
1.02588e-06
1.38493e-07
1.02879e-06
1.33849e-07
1.03547e-06
1.23485e-07
1.04406e-06
1.11583e-07
1.05338e-06
9.99527e-08
1.06281e-06
8.92391e-08
1.072e-06
7.96139e-08
1.08076e-06
7.10699e-08
1.08901e-06
6.35302e-08
1.09671e-06
5.68928e-08
1.10386e-06
5.10521e-08
1.11048e-06
4.59082e-08
1.11659e-06
4.13704e-08
1.12222e-06
3.73583e-08
1.12741e-06
3.38045e-08
3.06523e-08
1.13219e-06
7.38433e-07
8.27658e-08
7.38359e-07
1.27825e-07
7.47537e-07
1.29315e-07
7.61247e-07
1.20139e-07
7.76671e-07
1.08062e-07
7.92201e-07
9.6053e-08
8.07104e-07
8.50495e-08
8.21085e-07
7.52581e-08
8.3404e-07
6.66586e-08
8.4596e-07
5.91504e-08
8.56882e-07
5.26077e-08
8.6687e-07
4.69049e-08
8.75995e-07
4.19272e-08
8.8433e-07
3.7573e-08
8.91947e-07
3.37537e-08
8.98912e-07
3.03934e-08
9.05287e-07
2.74295e-08
2.48142e-08
9.11125e-07
5.08366e-07
8.65192e-08
5.2098e-07
1.15211e-07
5.4063e-07
1.09665e-07
5.62102e-07
9.86674e-08
5.83023e-07
8.71407e-08
6.02532e-07
7.65445e-08
6.20413e-07
6.71683e-08
6.36674e-07
5.89965e-08
6.51407e-07
5.19259e-08
6.64733e-07
4.58243e-08
6.76783e-07
4.05578e-08
6.87684e-07
3.60036e-08
6.97556e-07
3.20551e-08
7.06508e-07
2.8621e-08
7.14638e-07
2.56239e-08
7.22033e-07
2.29981e-08
7.28773e-07
2.069e-08
1.86656e-08
7.34921e-07
3.38162e-07
7.97782e-08
3.61902e-07
9.14716e-08
3.88608e-07
8.29585e-08
4.14394e-07
7.2881e-08
4.37872e-07
6.36629e-08
4.58944e-07
5.54727e-08
4.77802e-07
4.83104e-08
4.94657e-07
4.21416e-08
5.09722e-07
3.68603e-08
5.23203e-07
3.23441e-08
5.35283e-07
2.8477e-08
5.46131e-07
2.51563e-08
5.55891e-07
2.22946e-08
5.64693e-07
1.98191e-08
5.72648e-07
1.76691e-08
5.79853e-07
1.57931e-08
5.86395e-07
1.41478e-08
1.2717e-08
5.92344e-07
2.15302e-07
6.10481e-08
2.4653e-07
6.02436e-08
2.76305e-07
5.31835e-08
3.03318e-07
4.58683e-08
3.27038e-07
3.99432e-08
3.47891e-07
3.46194e-08
3.66284e-07
2.99176e-08
3.82529e-07
2.58969e-08
3.96903e-07
2.24857e-08
4.09655e-07
1.95926e-08
4.20997e-07
1.71347e-08
4.31114e-07
1.50391e-08
4.40164e-07
1.32447e-08
4.48282e-07
1.17016e-08
4.55582e-07
1.03686e-08
4.62164e-07
9.21107e-09
4.68117e-07
8.19442e-09
7.32047e-09
4.73514e-07
1.27954e-07
3.10772e-08
1.60946e-07
2.72523e-08
1.89657e-07
2.44723e-08
2.15191e-07
2.03345e-08
2.37324e-07
1.78094e-08
2.56578e-07
1.5366e-08
2.73366e-07
1.31299e-08
2.88029e-07
1.12332e-08
3.00874e-07
9.64119e-09
3.12163e-07
8.3035e-09
3.2212e-07
7.17798e-09
3.30931e-07
6.22737e-09
3.38756e-07
5.42055e-09
3.45724e-07
4.73266e-09
3.5195e-07
4.14312e-09
3.57525e-07
3.63577e-09
3.62534e-07
3.18616e-09
2.79375e-09
3.6706e-07
5.8662e-08
8.59143e-08
1.10387e-07
1.30721e-07
1.48531e-07
1.63897e-07
1.77026e-07
1.8826e-07
1.97901e-07
2.06204e-07
2.13382e-07
2.1961e-07
2.2503e-07
2.29763e-07
2.33906e-07
2.37542e-07
2.40728e-07
2.43522e-07
3.36622e-09
-3.36587e-09
9.06629e-09
-5.6996e-09
1.42895e-08
-5.22265e-09
1.79448e-08
-3.65496e-09
1.97063e-08
-1.7609e-09
1.9629e-08
7.76317e-11
1.79753e-08
1.65422e-09
1.50805e-08
2.89509e-09
1.12256e-08
3.85549e-09
6.58593e-09
4.6398e-09
1.24204e-09
5.34447e-09
-4.83508e-09
6.07711e-09
-1.17295e-08
6.89497e-09
-1.95015e-08
7.77186e-09
-2.81953e-08
8.69429e-09
-3.78402e-08
9.64464e-09
-4.84374e-08
1.05978e-08
-5.99631e-08
1.15253e-08
-7.23594e-08
1.23968e-08
-8.55458e-08
1.31859e-08
-9.94187e-08
1.38733e-08
-1.13865e-07
1.44459e-08
-1.28761e-07
1.48963e-08
-1.43983e-07
1.52211e-08
-1.59405e-07
1.54218e-08
-1.74909e-07
1.55032e-08
-1.90382e-07
1.54733e-08
-2.05725e-07
1.53421e-08
-2.20845e-07
1.51208e-08
-2.35667e-07
1.48206e-08
-2.50119e-07
1.4453e-08
-2.64148e-07
1.40287e-08
-2.77705e-07
1.35574e-08
-2.90754e-07
1.30479e-08
-3.03261e-07
1.2508e-08
-3.15205e-07
1.19442e-08
-3.26566e-07
1.1362e-08
-3.37332e-07
1.07658e-08
-3.47491e-07
1.01595e-08
-3.57037e-07
9.54582e-09
-3.65964e-07
8.92712e-09
-3.74269e-07
8.30501e-09
-3.81949e-07
7.68084e-09
-3.89005e-07
7.05537e-09
-3.95433e-07
6.42921e-09
-4.01236e-07
5.80245e-09
-4.0641e-07
5.17502e-09
-4.10956e-07
4.54628e-09
-4.14871e-07
3.91551e-09
-4.18153e-07
3.28152e-09
-4.20795e-07
2.64315e-09
-4.22794e-07
1.99852e-09
-4.24139e-07
1.34539e-09
-4.24822e-07
6.8386e-10
-4.24849e-07
2.69397e-11
-4.24261e-07
-5.87136e-10
-4.23112e-07
-1.14817e-09
-4.21432e-07
-1.67996e-09
-4.19239e-07
-2.19247e-09
-4.16547e-07
-2.6907e-09
-4.1337e-07
-3.17653e-09
-4.09718e-07
-3.65055e-09
-4.05605e-07
-4.11277e-09
-4.01041e-07
-4.56281e-09
-3.96041e-07
-5.00026e-09
-3.90615e-07
-5.42453e-09
-3.8478e-07
-5.8352e-09
-3.78547e-07
-6.23165e-09
-3.71934e-07
-6.61355e-09
-3.64952e-07
-6.98033e-09
-3.57621e-07
-7.33173e-09
-3.49953e-07
-7.66726e-09
-3.41966e-07
-7.98679e-09
-3.33676e-07
-8.28986e-09
-3.25099e-07
-8.57652e-09
-3.16252e-07
-8.84636e-09
-3.07152e-07
-9.09957e-09
-2.97815e-07
-9.3359e-09
-2.88259e-07
-9.5557e-09
-2.785e-07
-9.75867e-09
-2.68555e-07
-9.94519e-09
-2.58439e-07
-1.01153e-08
-2.48171e-07
-1.02684e-08
-2.37767e-07
-1.04043e-08
-2.27243e-07
-1.05249e-08
-2.16613e-07
-1.06299e-08
-2.05896e-07
-1.07195e-08
-1.95104e-07
-1.07937e-08
-1.84254e-07
-1.08528e-08
-1.73362e-07
-1.08976e-08
-1.62438e-07
-1.09279e-08
-1.51498e-07
-1.09443e-08
-1.40554e-07
-1.09471e-08
-1.2962e-07
-1.09368e-08
-1.18709e-07
-1.09139e-08
-1.07833e-07
-1.0879e-08
-9.70036e-08
-1.08326e-08
-8.62311e-08
-1.07751e-08
-7.55263e-08
-1.07072e-08
-6.48993e-08
-1.06292e-08
-5.43592e-08
-1.05419e-08
-4.39151e-08
-1.04455e-08
-3.35754e-08
-1.03406e-08
-2.33484e-08
-1.02275e-08
-1.3243e-08
-1.01057e-08
-3.27514e-09
-9.96808e-09
6.55381e-09
-9.82932e-09
1.62508e-08
-9.69738e-09
2.58032e-08
-9.55316e-09
3.51997e-08
-9.39722e-09
4.44344e-08
-9.23569e-09
5.35031e-08
-9.06985e-09
6.24024e-08
-8.90047e-09
7.11291e-08
-8.72801e-09
7.96806e-08
-8.55285e-09
8.80544e-08
-8.37531e-09
9.62486e-08
-8.19569e-09
1.04261e-07
-8.01437e-09
1.12092e-07
-7.8316e-09
1.19738e-07
-7.64774e-09
1.27199e-07
-7.46303e-09
1.34475e-07
-7.27782e-09
1.41566e-07
-7.0923e-09
1.4847e-07
-6.90686e-09
1.5519e-07
-6.72159e-09
1.61725e-07
-6.5369e-09
1.68077e-07
-6.35281e-09
1.74245e-07
-6.16977e-09
1.80231e-07
-5.98773e-09
1.86037e-07
-5.80711e-09
1.91664e-07
-5.62784e-09
1.97114e-07
-5.45032e-09
2.02388e-07
-5.27445e-09
2.07488e-07
-5.10061e-09
2.12417e-07
-4.92868e-09
2.17176e-07
-4.75902e-09
2.21769e-07
-4.5915e-09
2.26196e-07
-4.42644e-09
2.30462e-07
-4.2637e-09
2.34567e-07
-4.10353e-09
2.38516e-07
-3.94587e-09
2.42309e-07
-3.79086e-09
2.4595e-07
-3.63853e-09
2.49441e-07
-3.48895e-09
2.52785e-07
-3.34208e-09
2.55985e-07
-3.19799e-09
2.59043e-07
-3.05663e-09
2.61963e-07
-2.91806e-09
2.64747e-07
-2.78221e-09
2.67398e-07
-2.64915e-09
2.69919e-07
-2.5188e-09
2.72312e-07
-2.39119e-09
2.7458e-07
-2.26623e-09
2.76725e-07
-2.14392e-09
2.78751e-07
-2.02413e-09
2.8066e-07
-1.90684e-09
2.82454e-07
-1.7919e-09
2.84135e-07
-1.67922e-09
2.85705e-07
-1.56856e-09
2.87166e-07
-1.45972e-09
2.8852e-07
-1.35237e-09
2.89768e-07
-1.24617e-09
2.90911e-07
-1.14053e-09
2.91947e-07
-1.03476e-09
2.92876e-07
-9.278e-10
2.93696e-07
-8.18342e-10
2.94402e-07
-7.0447e-10
2.94987e-07
-5.83563e-10
2.9544e-07
-4.51541e-10
2.95744e-07
-3.02107e-10
2.95863e-07
-1.18393e-10
2.9574e-07
1.24385e-10
2.95304e-07
4.38142e-10
2.94464e-07
8.4077e-10
2.93075e-07
1.38974e-09
2.90881e-07
2.19522e-09
2.8739e-07
3.49239e-09
2.81683e-07
5.70873e-09
2.71644e-07
1.00395e-08
1.84307e-08
2.53214e-07
3.5938e-09
-6.95927e-09
6.61043e-09
-8.71569e-09
7.28905e-09
-5.90076e-09
5.95824e-09
-2.32384e-09
2.99368e-09
1.20409e-09
-1.37299e-09
4.44455e-09
-7.02573e-09
7.30736e-09
-1.39116e-08
9.78111e-09
-2.19737e-08
1.1918e-08
-3.11448e-08
1.3811e-08
-4.13581e-08
1.55581e-08
-5.25191e-08
1.72382e-08
-6.45199e-08
1.88959e-08
-7.72862e-08
2.05382e-08
-9.07375e-08
2.21458e-08
-1.04778e-07
2.36851e-08
-1.19297e-07
2.5117e-08
-1.34178e-07
2.64063e-08
-1.49306e-07
2.7525e-08
-1.6457e-07
2.84497e-08
-1.79861e-07
2.91641e-08
-1.95075e-07
2.96597e-08
-2.10115e-07
2.99368e-08
-2.24898e-07
3.00036e-08
-2.3935e-07
2.98738e-08
-2.53412e-07
2.95645e-08
-2.67033e-07
2.9095e-08
-2.80177e-07
2.84857e-08
-2.92813e-07
2.77568e-08
-3.0492e-07
2.69276e-08
-3.16483e-07
2.60158e-08
-3.27492e-07
2.50373e-08
-3.3794e-07
2.4006e-08
-3.47827e-07
2.2934e-08
-3.57149e-07
2.1831e-08
-3.6591e-07
2.07052e-08
-3.74111e-07
1.95632e-08
-3.81755e-07
1.841e-08
-3.88845e-07
1.72497e-08
-3.95385e-07
1.60852e-08
-4.01376e-07
1.49187e-08
-4.06823e-07
1.37519e-08
-4.11728e-07
1.25859e-08
-4.16094e-07
1.14214e-08
-4.19923e-07
1.02591e-08
-4.2322e-07
9.09914e-09
-4.25987e-07
7.94188e-09
-4.28228e-07
6.78752e-09
-4.29948e-07
5.63642e-09
-4.31156e-07
4.48918e-09
-4.31859e-07
3.34682e-09
-4.32072e-07
2.2111e-09
-4.31812e-07
1.08575e-09
-4.31106e-07
-2.17319e-11
-4.29977e-07
-1.10151e-09
-4.28411e-07
-2.15327e-09
-4.26376e-07
-3.18264e-09
-4.23864e-07
-4.19095e-09
-4.20878e-07
-5.17875e-09
-4.17421e-07
-6.14642e-09
-4.13504e-07
-7.09369e-09
-4.09134e-07
-8.01992e-09
-4.04322e-07
-8.92419e-09
-3.99079e-07
-9.80544e-09
-3.93416e-07
-1.06626e-08
-3.87346e-07
-1.14945e-08
-3.80881e-07
-1.23e-08
-3.74034e-07
-1.30782e-08
-3.66819e-07
-1.38282e-08
-3.5925e-07
-1.45489e-08
-3.51342e-07
-1.52398e-08
-3.43109e-07
-1.58999e-08
-3.34567e-07
-1.65288e-08
-3.25731e-07
-1.71259e-08
-3.16616e-07
-1.76909e-08
-3.07239e-07
-1.82233e-08
-2.97615e-07
-1.87231e-08
-2.8776e-07
-1.91901e-08
-2.77692e-07
-1.96245e-08
-2.67424e-07
-2.00263e-08
-2.56973e-07
-2.03958e-08
-2.46355e-07
-2.07331e-08
-2.35587e-07
-2.1037e-08
-2.24683e-07
-2.13083e-08
-2.13659e-07
-2.1549e-08
-2.0253e-07
-2.17592e-08
-1.91312e-07
-2.19389e-08
-1.80018e-07
-2.20886e-08
-1.68664e-07
-2.22091e-08
-1.57263e-07
-2.23009e-08
-1.45828e-07
-2.23648e-08
-1.34373e-07
-2.24014e-08
-1.22911e-07
-2.24115e-08
-1.11453e-07
-2.2396e-08
-1.00013e-07
-2.23558e-08
-8.8601e-08
-2.22921e-08
-7.72292e-08
-2.22057e-08
-6.59079e-08
-2.20977e-08
-5.46472e-08
-2.1969e-08
-4.34568e-08
-2.18206e-08
-3.23458e-08
-2.16536e-08
-2.1323e-08
-2.14688e-08
-1.03964e-08
-2.12675e-08
4.26087e-10
-2.10502e-08
1.11384e-08
-2.0818e-08
2.17407e-08
-2.05704e-08
3.22202e-08
-2.03089e-08
4.25577e-08
-2.00351e-08
5.27509e-08
-1.97467e-08
6.27984e-08
-1.94452e-08
7.26961e-08
-1.91339e-08
8.24399e-08
-1.88143e-08
9.20264e-08
-1.84877e-08
1.01452e-07
-1.81547e-08
1.10715e-07
-1.78162e-08
1.19811e-07
-1.74728e-08
1.2874e-07
-1.71253e-08
1.37499e-07
-1.67742e-08
1.46087e-07
-1.64202e-08
1.54502e-07
-1.60638e-08
1.62744e-07
-1.57058e-08
1.70811e-07
-1.53465e-08
1.78704e-07
-1.49867e-08
1.86423e-07
-1.46268e-08
1.93967e-07
-1.42672e-08
2.01338e-07
-1.39085e-08
2.08535e-07
-1.3551e-08
2.1556e-07
-1.31953e-08
2.22413e-07
-1.28416e-08
2.29095e-07
-1.24903e-08
2.35609e-07
-1.21418e-08
2.41954e-07
-1.17964e-08
2.48134e-07
-1.14542e-08
2.54149e-07
-1.11157e-08
2.60001e-07
-1.0781e-08
2.65693e-07
-1.04504e-08
2.71226e-07
-1.0124e-08
2.76602e-07
-9.80197e-09
2.81824e-07
-9.48452e-09
2.86894e-07
-9.17175e-09
2.91814e-07
-8.86386e-09
2.96586e-07
-8.56091e-09
3.01212e-07
-8.26306e-09
3.05695e-07
-7.9703e-09
3.10037e-07
-7.68275e-09
3.14241e-07
-7.40035e-09
3.18309e-07
-7.12321e-09
3.22243e-07
-6.85123e-09
3.26047e-07
-6.58451e-09
3.29722e-07
-6.32293e-09
3.33271e-07
-6.06656e-09
3.36697e-07
-5.81522e-09
3.40001e-07
-5.56898e-09
3.43186e-07
-5.3276e-09
3.46254e-07
-5.09106e-09
3.49208e-07
-4.85912e-09
3.52049e-07
-4.63166e-09
3.5478e-07
-4.40832e-09
3.57402e-07
-4.18883e-09
3.59916e-07
-3.97263e-09
3.62324e-07
-3.75918e-09
3.64627e-07
-3.54761e-09
3.66825e-07
-3.33692e-09
3.68917e-07
-3.12559e-09
3.70903e-07
-2.91173e-09
3.72778e-07
-2.69258e-09
3.7454e-07
-2.46455e-09
3.7618e-07
-2.22241e-09
3.77688e-07
-1.95874e-09
3.7905e-07
-1.66224e-09
3.80248e-07
-1.31536e-09
3.81265e-07
-8.91473e-10
3.82058e-07
-3.53991e-10
3.82552e-07
3.48209e-10
3.82638e-07
1.30462e-09
3.82164e-07
2.67113e-09
3.80862e-07
4.79524e-09
3.78366e-07
8.20587e-09
3.73945e-07
1.44608e-08
2.59732e-08
3.66404e-07
8.42581e-10
-7.80155e-09
-1.23389e-09
-6.63884e-09
-5.32604e-09
-1.80829e-09
-1.06805e-08
3.03079e-09
-1.70122e-08
7.53596e-09
-2.42285e-08
1.16611e-08
-3.23225e-08
1.54014e-08
-4.13109e-08
1.87696e-08
-5.11953e-08
2.18026e-08
-6.19418e-08
2.45575e-08
-7.34785e-08
2.70949e-08
-8.5702e-08
2.94617e-08
-9.8488e-08
3.16821e-08
-1.11707e-07
3.37569e-08
-1.2523e-07
3.56689e-08
-1.38936e-07
3.73912e-08
-1.52715e-07
3.88958e-08
-1.66467e-07
4.01583e-08
-1.80103e-07
4.11614e-08
-1.93548e-07
4.1895e-08
-2.06741e-07
4.23571e-08
-2.19635e-07
4.25533e-08
-2.32194e-07
4.24958e-08
-2.44393e-07
4.22019e-08
-2.56211e-07
4.16925e-08
-2.67637e-07
4.09903e-08
-2.78661e-07
4.01188e-08
-2.89276e-07
3.9101e-08
-2.99478e-07
3.79591e-08
-3.09264e-07
3.67133e-08
-3.1863e-07
3.53818e-08
-3.27574e-07
3.39807e-08
-3.36092e-07
3.25238e-08
-3.44181e-07
3.10228e-08
-3.51837e-07
2.94875e-08
-3.59057e-07
2.79256e-08
-3.65838e-07
2.63436e-08
-3.72174e-07
2.47466e-08
-3.78063e-07
2.31384e-08
-3.835e-07
2.15222e-08
-3.88481e-07
1.99002e-08
-3.93004e-07
1.82745e-08
-3.97064e-07
1.66463e-08
-4.00659e-07
1.5017e-08
-4.03788e-07
1.33876e-08
-4.06448e-07
1.17591e-08
-4.08638e-07
1.01327e-08
-4.1036e-07
8.50948e-09
-4.11615e-07
6.89108e-09
-4.12405e-07
5.27934e-09
-4.12734e-07
3.67663e-09
-4.12609e-07
2.08594e-09
-4.12034e-07
5.11236e-10
-4.11013e-07
-1.04286e-09
-4.09541e-07
-2.57314e-09
-4.07613e-07
-4.08061e-09
-4.05229e-07
-5.56654e-09
-4.0239e-07
-7.02984e-09
-3.991e-07
-8.46907e-09
-3.95363e-07
-9.88261e-09
-3.91188e-07
-1.12688e-08
-3.86582e-07
-1.26257e-08
-3.81554e-07
-1.39517e-08
-3.76114e-07
-1.52447e-08
-3.70273e-07
-1.6503e-08
-3.64043e-07
-1.77249e-08
-3.57434e-07
-1.89087e-08
-3.50459e-07
-2.00528e-08
-3.43131e-07
-2.11557e-08
-3.35464e-07
-2.22162e-08
-3.27471e-07
-2.3233e-08
-3.19165e-07
-2.4205e-08
-3.10563e-07
-2.51314e-08
-3.01677e-07
-2.60114e-08
-2.92524e-07
-2.68443e-08
-2.83117e-07
-2.76297e-08
-2.73473e-07
-2.83671e-08
-2.63606e-07
-2.90566e-08
-2.53532e-07
-2.9698e-08
-2.43267e-07
-3.02917e-08
-2.32825e-07
-3.08378e-08
-2.22222e-07
-3.13363e-08
-2.11472e-07
-3.17867e-08
-2.00591e-07
-3.21894e-08
-1.89594e-07
-3.25465e-08
-1.78495e-07
-3.28586e-08
-1.67308e-07
-3.31258e-08
-1.56049e-07
-3.33491e-08
-1.4473e-07
-3.35291e-08
-1.33365e-07
-3.36672e-08
-1.21967e-07
-3.37641e-08
-1.10548e-07
-3.38209e-08
-9.91217e-08
-3.38389e-08
-8.76992e-08
-3.38192e-08
-7.62924e-08
-3.37634e-08
-6.49124e-08
-3.36727e-08
-5.35702e-08
-3.35486e-08
-4.22759e-08
-3.33925e-08
-3.10396e-08
-3.32058e-08
-1.98704e-08
-3.29901e-08
-8.77734e-09
-3.27469e-08
2.23147e-09
-3.24777e-08
1.31476e-08
-3.21834e-08
2.39632e-08
-3.18657e-08
3.46714e-08
-3.1526e-08
4.52659e-08
-3.11648e-08
5.57394e-08
-3.07824e-08
6.60835e-08
-3.03793e-08
7.62933e-08
-2.99567e-08
8.6365e-08
-2.95172e-08
9.62941e-08
-2.90633e-08
1.06076e-07
-2.85971e-08
1.15708e-07
-2.812e-08
1.25186e-07
-2.76333e-08
1.34508e-07
-2.71381e-08
1.4367e-07
-2.66356e-08
1.52671e-07
-2.61267e-08
1.61508e-07
-2.56124e-08
1.70181e-07
-2.50936e-08
1.78688e-07
-2.45714e-08
1.87028e-07
-2.40465e-08
1.95201e-07
-2.35198e-08
2.03206e-07
-2.29921e-08
2.11042e-07
-2.24642e-08
2.18711e-07
-2.19367e-08
2.26212e-07
-2.14104e-08
2.33546e-07
-2.08859e-08
2.40714e-07
-2.03637e-08
2.47716e-07
-1.98446e-08
2.54554e-07
-1.93289e-08
2.61229e-07
-1.88172e-08
2.67743e-07
-1.83098e-08
2.74095e-07
-1.78073e-08
2.8029e-07
-1.731e-08
2.86327e-07
-1.68183e-08
2.92209e-07
-1.63325e-08
2.97938e-07
-1.58527e-08
3.03516e-07
-1.53793e-08
3.08945e-07
-1.49125e-08
3.14227e-07
-1.44525e-08
3.19364e-07
-1.39995e-08
3.24358e-07
-1.35537e-08
3.29211e-07
-1.31153e-08
3.33926e-07
-1.26842e-08
3.38505e-07
-1.22607e-08
3.4295e-07
-1.18447e-08
3.47264e-07
-1.14362e-08
3.51448e-07
-1.10353e-08
3.55507e-07
-1.0642e-08
3.59441e-07
-1.02562e-08
3.63253e-07
-9.87791e-09
3.66945e-07
-9.50698e-09
3.7052e-07
-9.14335e-09
3.7398e-07
-8.78687e-09
3.77327e-07
-8.43739e-09
3.80563e-07
-8.09465e-09
3.83691e-07
-7.75835e-09
3.86711e-07
-7.42809e-09
3.89627e-07
-7.10337e-09
3.92438e-07
-6.78347e-09
3.95147e-07
-6.46752e-09
3.97755e-07
-6.1543e-09
4.00261e-07
-5.84227e-09
4.02665e-07
-5.52929e-09
4.04966e-07
-5.21254e-09
4.07163e-07
-4.88812e-09
4.0925e-07
-4.55078e-09
4.11221e-07
-4.19311e-09
4.13067e-07
-3.8047e-09
4.14776e-07
-3.3704e-09
4.1633e-07
-2.8685e-09
4.17706e-07
-2.26724e-09
4.18872e-07
-1.5188e-09
4.19772e-07
-5.5191e-10
4.20327e-07
7.5081e-10
4.20419e-07
2.57982e-09
4.19894e-07
5.32082e-09
4.18565e-07
9.53542e-09
4.16393e-07
1.66328e-08
2.86524e-08
4.13714e-07
-2.59711e-09
-5.20419e-09
-8.63346e-09
-6.02259e-10
-1.58854e-08
5.44383e-09
-2.37743e-08
1.09198e-08
-3.21725e-08
1.59343e-08
-4.10679e-08
2.05565e-08
-5.04822e-08
2.48158e-08
-6.04396e-08
2.87271e-08
-7.09446e-08
3.23077e-08
-8.19688e-08
3.55818e-08
-9.34488e-08
3.85749e-08
-1.05294e-07
4.13067e-08
-1.17397e-07
4.37852e-08
-1.29648e-07
4.60075e-08
-1.41941e-07
4.79624e-08
-1.54185e-07
4.96356e-08
-1.66304e-07
5.1014e-08
-1.78234e-07
5.20883e-08
-1.89927e-07
5.2855e-08
-2.01349e-07
5.33172e-08
-2.12477e-07
5.34845e-08
-2.23295e-07
5.3372e-08
-2.33798e-07
5.2999e-08
-2.43984e-07
5.23869e-08
-2.5385e-07
5.15591e-08
-2.63399e-07
5.05392e-08
-2.72631e-07
4.93505e-08
-2.81545e-07
4.80153e-08
-2.9014e-07
4.65545e-08
-2.98414e-07
4.49869e-08
-3.06361e-07
4.33294e-08
-3.13978e-07
4.15969e-08
-3.21256e-07
3.98022e-08
-3.28189e-07
3.79561e-08
-3.3477e-07
3.60679e-08
-3.40989e-07
3.4145e-08
-3.46839e-07
3.21936e-08
-3.52311e-07
3.02188e-08
-3.57398e-07
2.82248e-08
-3.62091e-07
2.62149e-08
-3.66382e-07
2.41918e-08
-3.70266e-07
2.2158e-08
-3.73735e-07
2.01154e-08
-3.76784e-07
1.8066e-08
-3.79407e-07
1.60115e-08
-3.81602e-07
1.3954e-08
-3.83365e-07
1.18951e-08
-3.84692e-07
9.83728e-09
-3.85584e-07
7.78274e-09
-3.86038e-07
5.73422e-09
-3.86056e-07
3.69475e-09
-3.85638e-07
1.66765e-09
-3.84783e-07
-3.43482e-10
-3.83491e-07
-2.33529e-09
-3.81758e-07
-4.3054e-09
-3.79586e-07
-6.2528e-09
-3.76976e-07
-8.17626e-09
-3.73932e-07
-1.00737e-08
-3.70458e-07
-1.19425e-08
-3.66561e-07
-1.378e-08
-3.62246e-07
-1.55835e-08
-3.57521e-07
-1.73502e-08
-3.52395e-07
-1.90775e-08
-3.46877e-07
-2.07627e-08
-3.40976e-07
-2.24033e-08
-3.34704e-07
-2.3997e-08
-3.28071e-07
-2.55414e-08
-3.21089e-07
-2.70344e-08
-3.13771e-07
-2.84742e-08
-3.06128e-07
-2.98589e-08
-2.98174e-07
-3.11869e-08
-2.89922e-07
-3.24568e-08
-2.81386e-07
-3.36673e-08
-2.7258e-07
-3.48175e-08
-2.63518e-07
-3.59064e-08
-2.54214e-07
-3.69333e-08
-2.44683e-07
-3.78979e-08
-2.3494e-07
-3.87998e-08
-2.24999e-07
-3.9639e-08
-2.14875e-07
-4.04158e-08
-2.04582e-07
-4.11304e-08
-1.94136e-07
-4.17829e-08
-1.83549e-07
-4.23731e-08
-1.72837e-07
-4.29013e-08
-1.62015e-07
-4.33695e-08
-1.51095e-07
-4.37786e-08
-1.40092e-07
-4.41292e-08
-1.29019e-07
-4.44222e-08
-1.1789e-07
-4.4659e-08
-1.06717e-07
-4.48406e-08
-9.55136e-08
-4.49685e-08
-8.4291e-08
-4.50441e-08
-7.30613e-08
-4.50689e-08
-6.18362e-08
-4.50446e-08
-5.06269e-08
-4.4973e-08
-3.94441e-08
-4.48557e-08
-2.82983e-08
-4.46946e-08
-1.71993e-08
-4.44916e-08
-6.1566e-09
-4.42486e-08
4.82081e-09
-4.39675e-08
1.5724e-08
-4.365e-08
2.65445e-08
-4.3298e-08
3.72747e-08
-4.29133e-08
4.79072e-08
-4.24979e-08
5.84348e-08
-4.20533e-08
6.88508e-08
-4.15807e-08
7.91493e-08
-4.10808e-08
8.93248e-08
-4.05549e-08
9.93729e-08
-4.00048e-08
1.09289e-07
-3.94333e-08
1.19068e-07
-3.88428e-08
1.28706e-07
-3.82357e-08
1.382e-07
-3.76141e-08
1.47546e-07
-3.69794e-08
1.56741e-07
-3.63335e-08