/*--------------------------------*- C++ -*----------------------------------*\
  =========                 |
  \\      /  F ield         | OpenFOAM: The Open Source CFD Toolbox
   \\    /   O peration     | Website:  https://openfoam.org
    \\  /    A nd           | Version:  10
     \\/     M anipulation  |
\*---------------------------------------------------------------------------*/
FoamFile
{
    format      ascii;
    class       volScalarField::Internal;
    location    "234";
    object      tmp<kEpsilon:G>;
}
// * * * * * * * * * * * * * * * * * * * * * * * * * * * * * * * * * * * * * //

dimensions      [0 2 -3 0 0 0 0];

value           nonuniform List<scalar> 
12225
(
0
0
0
0
0
0
0
0
0
0
0
0
0
0
0
0
0
0
14.976
9.61218
10.8677
11.2819
11.5535
11.8501
12.1873
12.559
12.9459
13.3339
13.7142
14.0802
14.4248
14.7373
14.9804
15.0558
14.5555
12.7326
19.4639
14.5552
13.061
11.6213
10.6661
9.98146
9.47566
9.1109
8.84799
8.65771
8.51888
8.41452
8.32805
8.23823
8.09895
7.81717
7.15596
6.07755
25.1604
20.7487
16.7504
13.9848
12.2127
10.9339
9.95998
9.21079
8.62566
8.16118
7.78547
7.47297
7.19981
6.93825
6.64172
6.23993
5.63551
4.96376
28.5982
26.2409
20.7532
16.9959
14.5137
12.7079
11.3293
10.2539
9.39952
8.70905
8.14042
7.66012
7.23793
6.84192
6.42941
5.95494
5.39969
4.92883
30.6326
30.4455
24.502
20.1222
17.0436
14.7614
13.011
11.6341
10.5304
9.6303
8.8827
8.24715
7.68852
7.1732
6.66508
6.14059
5.61777
5.2498
31.3394
33.1351
27.6785
23.0699
19.5594
16.8791
14.7984
13.1461
11.8104
10.7133
9.7964
9.014
8.32787
7.70479
7.1159
6.55359
6.04783
5.71973
30.7417
34.2172
29.9356
25.5458
21.8338
18.8791
16.5354
14.6498
13.1102
11.8356
10.764
9.84702
9.04526
8.32735
7.67082
7.0772
6.57387
6.24386
29.023
33.6605
31.0298
27.2131
23.6318
20.5617
18.0587
16.006
14.3081
12.8885
11.6869
10.6554
9.75572
8.95933
8.24844
7.6275
7.11429
6.75754
26.4681
31.6355
30.7428
27.8155
24.6708
21.7105
19.1895
17.0627
15.2721
13.7558
12.4613
11.3454
10.3732
9.51943
8.76927
8.12569
7.59573
7.20126
23.3952
28.4073
29.032
27.2119
24.7117
22.104
19.7265
17.6484
15.8544
14.3088
12.9736
11.8146
10.8034
9.91884
9.14798
8.49036
7.94434
7.5131
20.2579
24.6971
26.3375
25.5393
23.7614
21.6502
19.5538
17.6322
15.9214
14.4183
13.1028
11.9511
10.942
10.0589
9.29048
8.63379
8.0793
7.62642
17.0349
20.5989
22.7864
22.8558
21.8183
20.2932
18.6127
16.9559
15.4218
14.0377
12.8036
11.7101
10.7447
9.89626
9.15579
8.51952
7.97226
7.51726
13.4648
15.9096
18.1161
18.8563
18.5449
17.6948
16.5683
15.3136
14.0781
12.9169
11.8523
10.8901
10.0289
9.26431
8.59111
8.00481
7.49306
7.05847
9.59998
11.0334
12.7583
13.7331
13.9618
13.7261
13.1714
12.4181
11.5908
10.7593
9.96152
9.21672
8.53404
7.91668
7.36426
6.87384
6.44066
6.06439
5.69937
6.37737
7.42763
8.23689
8.64704
8.76194
8.64536
8.35043
7.94783
7.49366
7.02425
6.56238
6.1222
5.71179
5.33478
4.99106
4.68341
4.40974
2.25416
2.50909
3.01163
3.48349
3.79173
3.967
4.03195
3.99802
3.8895
3.73327
3.55017
3.35484
3.15755
2.9652
2.78182
2.60874
2.45166
2.3077
0.187332
0.283338
0.509391
0.749569
0.920698
1.03594
1.11052
1.14614
1.14815
1.12623
1.08886
1.04199
0.989877
0.93559
0.881155
0.827637
0.777732
0.729658
0.811139
0.953636
1.24678
1.55273
1.77208
1.91462
1.99818
2.02826
2.01416
1.96909
1.90437
1.82803
1.74577
1.66174
1.5789
1.49952
1.42217
1.34874
4.44516
4.96916
5.80271
6.51617
6.93626
7.12145
7.12667
6.98706
6.74764
6.45049
6.12574
5.79302
5.46509
5.14997
4.8523
4.57481
4.31466
4.07801
9.57777
10.9668
12.5806
13.5312
13.7822
13.5869
13.0992
12.4272
11.677
10.914
10.1756
9.48051
8.83722
8.24817
7.71229
7.22695
6.7864
6.39409
15.2753
18.0873
20.2713
20.7395
20.1379
19.0224
17.702
16.3141
14.9852
13.7607
12.6539
11.664
10.7834
10.0015
9.30734
8.69038
8.14108
7.65774
20.9131
25.3508
26.8937
25.8878
23.9665
21.8045
19.6761
17.7527
16.0525
14.5727
13.2911
12.18
11.2149
10.3739
9.63839
8.99247
8.42418
7.92815
25.9905
31.0164
30.5911
27.6578
24.5915
21.6995
19.2222
17.1181
15.3494
13.8589
12.5955
11.5195
10.5982
9.80502
9.11822
8.51985
7.99725
7.54376
29.5686
33.681
30.5874
26.3076
22.6035
19.6156
17.1902
15.2237
13.616
12.2875
11.1791
10.2468
9.45618
8.78064
8.19931
7.6953
7.25681
6.8782
30.7533
32.501
27.4912
22.6729
19.1758
16.5426
14.4901
12.8631
11.5521
10.4811
9.59579
8.85656
8.2336
7.7041
7.25063
6.859
6.51898
6.22692
29.0645
27.5182
22.2857
18.1301
15.3651
13.3611
11.8275
10.622
9.66014
8.88158
8.24325
7.71418
7.27127
6.89702
6.57827
6.3044
6.06729
5.86519
24.249
19.4182
16.3369
13.8089
12.0373
10.7876
9.83341
9.08863
8.50405
8.03943
7.66528
7.36069
7.11026
6.90241
6.72861
6.58206
6.45752
6.35569
18.4752
11.277
11.4348
10.9968
10.5349
10.2413
10.0521
9.94563
9.90509
9.91045
9.94663
10.0036
10.0741
10.1531
10.2372
10.3237
10.4115
10.5142
0
0
0
0
0
0
0
0
0
0
0
0
0
0
0
0
0
0
0
0
0
0
0
0
0
0
0
0
0
0
0
0
0
0
0
0
0
0
0
0
0
0
0
0
0
0
0
0
0
0
0
0
0
0
0
0
0
0
0
0
0
0
0
0
0
0
0
0
0
0
0
0
0
0
0
0
0
0
0
0
0
0
0
0
0
0
0
0
0
0
0
0
0
0
0
0
0
0
0
0
0
0
0
0
0
0
0
0
0
0
0
0
0
0
0
0
0
0
0
0
0
0
0
0
0
0
0
0
0
0
0
0
0
0
0
0
0
0
0
0
0
0
0
0
0
0
0
0
0
0
0
0
0
0
0
0
0
0
0
0
0
0
0
0
0
0
0
0
0
0
0
0
0
0
0
0
0
0
0
0
0
0
0
0
0
0
0
0
0
0
0
0
0
0
0
0
0
0
0
0.000541136
0.000112932
0.000423176
0.00282409
0.00775756
0.0149011
0.0239216
0.034381
0.0460423
0.0588207
0.072728
0.0877234
0.103764
0.120698
0.138222
0.155935
0.173478
0.190145
0.205316
0.218343
0.228757
0.236268
0.24067
0.241915
0.24009
0.235402
0.228152
0.218698
0.207436
0.194765
0.181076
0.166729
0.152047
0.137317
0.122778
0.108632
0.0950443
0.0821469
0.0700443
0.0588175
0.0485283
0.0392224
0.0309324
0.0236796
0.0174759
0.0123235
0.00821528
0.00513283
0.00304466
0.00190186
0.00163396
0.0021522
0.00336365
0.00516945
0.00748906
0.0104385
0.0139338
0.0179678
0.022508
0.0275166
0.0329498
0.0387597
0.0448953
0.0513037
0.0579303
0.0647203
0.0716188
0.0785722
0.0855282
0.0924366
0.0992502
0.105924
0.112418
0.118695
0.12472
0.130465
0.135905
0.141024
0.145808
0.150249
0.154326
0.158008
0.161354
0.164353
0.167007
0.169322
0.171313
0.172994
0.174391
0.175523
0.176407
0.177062
0.17751
0.177778
0.177891
0.177872
0.177745
0.177532
0.177257
0.176941
0.176605
0.176271
0.175959
0.175716
0.175647
0.175825
0.176153
0.176521
0.176949
0.177474
0.178117
0.178889
0.179798
0.180848
0.182045
0.183394
0.184897
0.186557
0.188377
0.190358
0.192501
0.194809
0.197281
0.199916
0.202714
0.205673
0.208791
0.212068
0.215501
0.219087
0.222824
0.22671
0.230742
0.234916
0.23923
0.243681
0.248265
0.252978
0.257816
0.262775
0.267853
0.273048
0.278355
0.283771
0.289292
0.294914
0.300635
0.30645
0.312356
0.31835
0.32443
0.33059
0.336828
0.343139
0.349522
0.355974
0.362491
0.369071
0.37571
0.382405
0.389157
0.395962
0.40282
0.409729
0.416691
0.423707
0.430781
0.437926
0.445177
0.452586
0.460307
0.468578
0.477691
0.487977
0.500757
0.516736
0.544854
0.581419
0.700255
0
0.000515557
0.00655592
0.0141997
0.0232874
0.0343775
0.0478051
0.0635427
0.08103
0.0993729
0.11761
0.134903
0.150742
0.164797
0.176832
0.186659
0.194122
0.199039
0.201509
0.201678
0.199793
0.196093
0.19081
0.18424
0.176694
0.168485
0.159897
0.151183
0.142551
0.134169
0.126166
0.118633
0.111634
0.105209
0.0993828
0.0941678
0.0895714
0.0855981
0.0822522
0.0795396
0.0774681
0.0760482
0.0752922
0.0752136
0.0758263
0.0771434
0.0791767
0.0819364
0.0854315
0.089671
0.0946677
0.100445
0.107045
0.114522
0.122917
0.132455
0.142785
0.153854
0.165556
0.177798
0.190497
0.20357
0.216929
0.230486
0.24415
0.257828
0.271428
0.284858
0.29803
0.31086
0.323265
0.335171
0.346507
0.357211
0.367225
0.376501
0.384995
0.392673
0.399512
0.405497
0.410613
0.414888
0.418239
0.420758
0.422443
0.423312
0.423392
0.422713
0.421307
0.41922
0.416497
0.413175
0.409295
0.404903
0.400048
0.394777
0.389138
0.383178
0.376944
0.370482
0.363833
0.357035
0.350126
0.343159
0.336167
0.329146
0.322157
0.315336
0.308711
0.302237
0.295895
0.289696
0.283657
0.277792
0.272112
0.266627
0.261345
0.25627
0.251408
0.246762
0.242333
0.238125
0.234137
0.230368
0.226817
0.223482
0.220358
0.217442
0.214732
0.212222
0.209907
0.207784
0.205846
0.204088
0.202505
0.201092
0.199842
0.19875
0.19781
0.197014
0.196359
0.19584
0.195452
0.195191
0.195051
0.195027
0.195114
0.195309
0.195606
0.196001
0.196491
0.197072
0.19774
0.198491
0.199323
0.200231
0.201214
0.20227
0.203395
0.204588
0.205848
0.207173
0.208564
0.210022
0.211548
0.213148
0.214829
0.216601
0.218486
0.220516
0.222747
0.225174
0.227787
0.230885
0.234868
0.2407
0.249227
0.265966
0.29052
0.355854
0
0.00747253
0.0282483
0.0448542
0.0589307
0.0719179
0.0854532
0.100225
0.116048
0.132204
0.14775
0.161788
0.173646
0.182957
0.189636
0.193808
0.19573
0.195721
0.194126
0.1913
0.187589
0.183303
0.178705
0.173997
0.169337
0.164844
0.1606
0.156664
0.153069
0.149838
0.146983
0.144513
0.142435
0.140757
0.139494
0.138663
0.138287
0.138395
0.139024
0.14021
0.141998
0.144431
0.147557
0.151422
0.156071
0.161548
0.167893
0.175144
0.183338
0.192508
0.202692
0.213934
0.226278
0.23973
0.254234
0.269682
0.285951
0.302981
0.320676
0.338927
0.357625
0.376653
0.395894
0.415225
0.434524
0.453665
0.472527
0.490988
0.508931
0.526245
0.542825
0.558571
0.573393
0.587212
0.599954
0.611557
0.621968
0.631145
0.63906
0.645695
0.651063
0.655143
0.657897
0.659422
0.659718
0.658818
0.656766
0.653604
0.649383
0.644168
0.63802
0.631
0.623168
0.61459
0.605336
0.595478
0.585087
0.574229
0.562966
0.551359
0.539467
0.527347
0.515055
0.502649
0.49019
0.477728
0.465296
0.452962
0.440791
0.428789
0.416967
0.405356
0.393986
0.382879
0.372055
0.361529
0.351312
0.341413
0.331837
0.32259
0.313675
0.305093
0.296844
0.288927
0.281337
0.274071
0.267124
0.26049
0.254163
0.248135
0.242399
0.236947
0.231769
0.226859
0.222208
0.217807
0.213647
0.209719
0.206014
0.202522
0.199236
0.196149
0.193252
0.190539
0.188001
0.185631
0.183421
0.181365
0.179455
0.177686
0.176051
0.174545
0.173162
0.171896
0.170742
0.169697
0.168756
0.167914
0.16717
0.166519
0.165959
0.16549
0.165109
0.164819
0.164621
0.164521
0.164527
0.164653
0.164921
0.165366
0.166042
0.167013
0.168364
0.170319
0.173257
0.178115
0.185876
0.200577
0.222945
0.2665
0
0.0218522
0.0576129
0.0830858
0.101348
0.114269
0.125162
0.135608
0.145986
0.156065
0.165329
0.173221
0.179334
0.183497
0.185763
0.186347
0.185556
0.183735
0.181231
0.178355
0.175366
0.172438
0.169728
0.16733
0.165313
0.163718
0.162565
0.161864
0.161614
0.161814
0.162464
0.163565
0.165123
0.167152
0.169669
0.172701
0.176283
0.180452
0.185254
0.190737
0.196956
0.203964
0.211818
0.220576
0.23029
0.241013
0.252792
0.26567
0.279682
0.294858
0.311218
0.328772
0.347509
0.36738
0.388287
0.410113
0.432765
0.456152
0.480164
0.504673
0.529544
0.554633
0.579791
0.604867
0.629709
0.654165
0.678086
0.701326
0.723745
0.745211
0.765598
0.784794
0.802692
0.819201
0.834239
0.847737
0.859636
0.869892
0.878476
0.885388
0.890619
0.89416
0.896008
0.896259
0.894917
0.892031
0.887661
0.881868
0.874719
0.866296
0.85668
0.84595
0.834187
0.821478
0.807912
0.793578
0.77856
0.762945
0.746817
0.730257
0.713348
0.69617
0.678796
0.661292
0.643732
0.626193
0.60874
0.591422
0.574279
0.557334
0.540622
0.524182
0.508055
0.492272
0.476859
0.461836
0.44722
0.433024
0.419255
0.405922
0.393029
0.380578
0.368569
0.356999
0.345866
0.335163
0.324885
0.315024
0.305572
0.296519
0.287856
0.279573
0.27166
0.264105
0.256895
0.250021
0.243469
0.237228
0.231285
0.22563
0.22025
0.215136
0.210278
0.205665
0.201287
0.197134
0.193196
0.189463
0.185927
0.182578
0.179409
0.176412
0.173578
0.170901
0.168373
0.165989
0.163743
0.16163
0.159645
0.157782
0.156041
0.154417
0.15291
0.15152
0.15025
0.149105
0.148095
0.147236
0.146551
0.14608
0.14588
0.146037
0.146679
0.148049
0.150533
0.154978
0.162322
0.175566
0.195309
0.227382
0
0.0394618
0.0842195
0.116312
0.137721
0.149918
0.157551
0.163005
0.167296
0.170793
0.173522
0.175363
0.176207
0.176038
0.174958
0.173158
0.170876
0.168362
0.165843
0.163508
0.16149
0.159927
0.158877
0.158396
0.158515
0.159248
0.160601
0.162575
0.165168
0.168376
0.1722
0.176646
0.181726
0.187455
0.19386
0.200964
0.208803
0.217416
0.226853
0.237164
0.248406
0.260639
0.27392
0.288306
0.303852
0.320606
0.338612
0.3579
0.378495
0.400404
0.423623
0.448128
0.47387
0.500765
0.528698
0.557541
0.587175
0.617475
0.648303
0.679506
0.71092
0.742376
0.773695
0.8047
0.835211
0.865051
0.894047
0.922033
0.948848
0.974344
0.99838
1.02083
1.04158
1.06053
1.0776
1.09271
1.1058
1.11683
1.12578
1.13266
1.13743
1.14013
1.14078
1.13947
1.13622
1.13108
1.12415
1.11549
1.1052
1.09337
1.0801
1.0655
1.04967
1.0327
1.0147
0.995794
0.976073
0.955646
0.934622
0.913102
0.891184
0.868959
0.846515
0.823941
0.801325
0.778755
0.756306
0.734034
0.711978
0.690174
0.668664
0.647495
0.626712
0.606352
0.586448
0.567026
0.548107
0.529708
0.511839
0.494512
0.477731
0.4615
0.445819
0.430687
0.416099
0.402049
0.38853
0.375533
0.363047
0.351063
0.339568
0.328549
0.317994
0.307889
0.29822
0.288974
0.280136
0.271691
0.263624
0.255921
0.248567
0.241552
0.234861
0.228481
0.2224
0.216605
0.211083
0.205823
0.200813
0.196042
0.1915
0.187177
0.183064
0.17915
0.175428
0.171889
0.168526
0.165332
0.1623
0.159427
0.156706
0.154135
0.151713
0.149439
0.147316
0.145351
0.143553
0.141941
0.140542
0.139399
0.138573
0.138163
0.138318
0.13929
0.141466
0.145597
0.152497
0.164384
0.181392
0.206272
0
0.0565786
0.101713
0.136652
0.159683
0.171092
0.176084
0.177539
0.176983
0.175287
0.17293
0.17015
0.167074
0.163807
0.160471
0.157195
0.154118
0.15137
0.149087
0.147378
0.146336
0.146004
0.146426
0.147629
0.149628
0.152434
0.156052
0.160488
0.165745
0.171837
0.178772
0.186561
0.195216
0.204755
0.215204
0.2266
0.238984
0.252403
0.266908
0.282554
0.299401
0.317504
0.33692
0.3577
0.379887
0.403517
0.428614
0.455191
0.483244
0.512753
0.543679
0.575959
0.609506
0.644206
0.67992
0.716495
0.753777
0.791603
0.829801
0.868184
0.906561
0.944731
0.982489
1.01963
1.05595
1.09125
1.12534
1.15803
1.18915
1.21853
1.24603
1.27151
1.29486
1.31596
1.33473
1.35111
1.36504
1.37649
1.38543
1.39189
1.39581
1.3973
1.39637
1.39312
1.3876
1.37987
1.37003
1.35818
1.34443
1.32889
1.31169
1.29294
1.27276
1.25128
1.22862
1.20492
1.1803
1.15488
1.1288
1.10216
1.07508
1.04767
1.02002
0.992254
0.964459
0.936735
0.909164
0.881811
0.854728
0.82796
0.801558
0.775573
0.750054
0.725045
0.700582
0.676697
0.653414
0.630755
0.608732
0.587359
0.566642
0.546587
0.527193
0.508458
0.490379
0.472948
0.456157
0.439996
0.424453
0.409516
0.395171
0.381403
0.368197
0.355538
0.343408
0.331792
0.320672
0.31003
0.299848
0.290109
0.280799
0.271901
0.2634
0.255279
0.247524
0.240119
0.233048
0.226299
0.219858
0.21371
0.207843
0.202245
0.196905
0.19181
0.186952
0.18232
0.177905
0.173699
0.169693
0.165883
0.162262
0.158827
0.155575
0.152506
0.149624
0.146935
0.14445
0.142189
0.140183
0.138478
0.13714
0.136273
0.136036
0.136683
0.138582
0.142388
0.148767
0.15934
0.173781
0.193482
0
0.0712292
0.108209
0.141942
0.164607
0.175169
0.178411
0.177363
0.173794
0.168878
0.163391
0.157815
0.152435
0.147416
0.142868
0.138898
0.135597
0.133044
0.131295
0.130397
0.130389
0.13131
0.133181
0.13602
0.139845
0.144674
0.150521
0.157405
0.16535
0.174369
0.184485
0.195723
0.20811
0.221681
0.236473
0.25253
0.2699
0.288636
0.308793
0.330425
0.353586
0.378327
0.404693
0.432719
0.462431
0.493843
0.526952
0.561739
0.598166
0.636175
0.675684
0.71659
0.758764
0.802055
0.846288
0.891276
0.936823
0.982726
1.02877
1.07474
1.1204
1.16553
1.2099
1.25327
1.29542
1.33614
1.3752
1.41242
1.44761
1.4806
1.51123
1.53937
1.5649
1.58772
1.60775
1.62492
1.6392
1.65055
1.65898
1.66448
1.66706
1.66683
1.66381
1.65815
1.64987
1.63908
1.62588
1.6104
1.59277
1.57311
1.55157
1.52829
1.50342
1.4771
1.44949
1.42071
1.39093
1.36028
1.32891
1.29693
1.26448
1.23169
1.19866
1.16553
1.13239
1.09935
1.06651
1.03393
1.00168
0.969824
0.93841
0.907498
0.877139
0.847382
0.818269
0.789833
0.762105
0.735106
0.708855
0.683364
0.658643
0.634697
0.611527
0.58913
0.567502
0.546636
0.526521
0.507147
0.488501
0.470567
0.453331
0.436775
0.420881
0.405633
0.391011
0.376995
0.363566
0.350702
0.338384
0.326593
0.31531
0.304518
0.294197
0.284329
0.274896
0.26588
0.257263
0.249029
0.241163
0.233648
0.226469
0.219612
0.213063
0.20681
0.20084
0.195142
0.189704
0.184517
0.179572
0.174861
0.170378
0.166118
0.162078
0.158259
0.154663
0.151297
0.148175
0.145318
0.142758
0.140545
0.138748
0.137475
0.136886
0.137224
0.13883
0.142261
0.148031
0.157322
0.169415
0.185151
0
0.0833345
0.105382
0.134211
0.154687
0.164094
0.166262
0.164022
0.159138
0.15288
0.14612
0.139427
0.133171
0.127594
0.122841
0.118987
0.11608
0.114158
0.113254
0.113399
0.114616
0.116928
0.120359
0.124937
0.130692
0.137656
0.145863
0.155357
0.166165
0.178331
0.191891
0.206887
0.223367
0.241382
0.260985
0.282235
0.305187
0.329901
0.356431
0.38483
0.415143
0.447407
0.481648
0.517878
0.556095
0.596277
0.638385
0.682356
0.728109
0.775536
0.824505
0.874865
0.926439
0.979029
1.03242
1.08637
1.14065
1.19501
1.2492
1.30296
1.35604
1.40817
1.45909
1.50857
1.55635
1.6022
1.64591
1.68726
1.72607
1.76217
1.7954
1.82563
1.85275
1.87666
1.8973
1.91462
1.92858
1.93918
1.94643
1.95033
1.95093
1.94835
1.94264
1.93393
1.92231
1.90789
1.89079
1.87114
1.84912
1.82487
1.79856
1.77036
1.74042
1.70891
1.67599
1.64184
1.6066
1.57044
1.53351
1.49596
1.45792
1.41954
1.38094
1.34226
1.30361
1.26511
1.22685
1.18891
1.15138
1.11432
1.07778
1.04185
1.00656
0.971971
0.938131
0.905074
0.872833
0.841433
0.810894
0.781231
0.752454
0.724568
0.697575
0.671472
0.646253
0.621912
0.598436
0.575813
0.554029
0.533067
0.512909
0.493537
0.47493
0.457069
0.439931
0.423495
0.407738
0.392635
0.378167
0.36431
0.351043
0.338347
0.326198
0.314577
0.303461
0.292831
0.282667
0.27295
0.263661
0.254783
0.246299
0.23819
0.230443
0.223042
0.215972
0.209221
0.202776
0.196625
0.190758
0.185167
0.179844
0.174783
0.169981
0.165438
0.161156
0.157144
0.153416
0.149993
0.146911
0.144219
0.14199
0.140331
0.139397
0.139416
0.14069
0.143683
0.148771
0.156809
0.166783
0.1794
0
0.0936285
0.0963479
0.117571
0.134355
0.142155
0.143619
0.141089
0.136104
0.129835
0.123167
0.1167
0.110819
0.105752
0.101645
0.0985852
0.0966252
0.0957953
0.0961194
0.0976218
0.100332
0.104283
0.109518
0.116084
0.124029
0.133412
0.144298
0.156735
0.170786
0.186512
0.203977
0.223252
0.244406
0.267512
0.292642
0.319864
0.349243
0.380839
0.414704
0.450878
0.48939
0.530253
0.573462
0.618994
0.666803
0.716821
0.768958
0.823098
0.8791
0.9368
0.996008
1.05652
1.11809
1.18049
1.24343
1.30665
1.36986
1.43277
1.49509
1.55653
1.6168
1.67563
1.73273
1.78785
1.84072
1.89112
1.93881
1.98359
2.02527
2.0637
2.09872
2.13022
2.15808
2.18224
2.20264
2.21924
2.23205
2.24106
2.24629
2.24778
2.24563
2.23993
2.23079
2.21835
2.20272
2.18403
2.16242
2.13807
2.11114
2.08183
2.0503
2.01675
1.98136
1.9443
1.90575
1.8659
1.82493
1.783
1.74029
1.69695
1.65313
1.60898
1.56466
1.52029
1.476
1.43191
1.38813
1.34476
1.30186
1.25952
1.21781
1.17679
1.13653
1.09707
1.05847
1.02077
0.983991
0.94817
0.913327
0.879478
0.846633
0.814798
0.783973
0.754157
0.725343
0.697521
0.670681
0.644807
0.619883
0.595891
0.572812
0.550623
0.529304
0.508831
0.48918
0.470326
0.452243
0.434906
0.41829
0.402372
0.387128
0.372533
0.358564
0.345196
0.332406
0.320171
0.30847
0.29728
0.286581
0.276352
0.266574
0.257228
0.248297
0.239762
0.231609
0.223822
0.216386
0.20929
0.202521
0.196069
0.189926
0.184085
0.178542
0.173297
0.168352
0.163715
0.159402
0.155435
0.151849
0.148695
0.146046
0.144005
0.142719
0.142394
0.143293
0.145788
0.150136
0.15696
0.165042
0.175156
0
0.102907
0.0843094
0.0964535
0.108628
0.1144
0.115173
0.112725
0.108316
0.102947
0.097344
0.0920368
0.0873822
0.0836137
0.0808709
0.0792369
0.0787649
0.0794949
0.081465
0.0847181
0.0893054
0.0952871
0.102728
0.111705
0.12231
0.134616
0.148707
0.164669
0.182596
0.202583
0.224728
0.24913
0.275884
0.305082
0.336807
0.371137
0.408135
0.447853
0.490326
0.535569
0.583578
0.634327
0.687763
0.74381
0.802364
0.863297
0.926451
0.991647
1.05868
1.1273
1.19729
1.26835
1.3402
1.41254
1.48505
1.55741
1.62929
1.70038
1.77034
1.83887
1.90567
1.97043
2.03286
2.0927
2.1497
2.20361
2.25422
2.30133
2.34477
2.38439
2.42006
2.45167
2.47914
2.50242
2.52147
2.53629
2.54688
2.55327
2.5555
2.55365
2.54785
2.53821
2.52483
2.50792
2.48759
2.46398
2.43727
2.40765
2.3753
2.34044
2.30327
2.26398
2.22276
2.17982
2.13536
2.08956
2.04262
1.99473
1.94606
1.89677
1.84705
1.79703
1.74689
1.69676
1.64678
1.59708
1.54775
1.49891
1.45065
1.40304
1.35617
1.31009
1.26488
1.22058
1.17726
1.13494
1.09368
1.05348
1.01438
0.976393
0.939529
0.903793
0.869186
0.835706
0.803343
0.77209
0.741931
0.712851
0.684833
0.657855
0.631896
0.606932
0.582941
0.559895
0.537768
0.516532
0.496159
0.476622
0.457894
0.439948
0.422758
0.406296
0.390537
0.375453
0.361018
0.347208
0.333997
0.321362
0.30928
0.297728
0.286683
0.276126
0.266037
0.256396
0.247185
0.238388
0.229988
0.221972
0.214325
0.207038
0.200099
0.193503
0.187243
0.181319
0.175734
0.170495
0.165617
0.161123
0.157049
0.153445
0.150381
0.147956
0.146304
0.145607
0.146086
0.148035
0.151608
0.157265
0.163669
0.171741
0
0.111516
0.0717992
0.0744596
0.0816399
0.0851419
0.0852638
0.0830996
0.0795962
0.0755314
0.0715073
0.0679513
0.0651501
0.0632915
0.0624959
0.0628441
0.0643989
0.0672193
0.0713694
0.0769183
0.0839528
0.0925682
0.10288
0.114987
0.128998
0.145033
0.163213
0.183669
0.206539
0.231953
0.260042
0.290927
0.32472
0.361522
0.401417
0.444471
0.490731
0.540217
0.592927
0.64883
0.707865
0.769945
0.83495
0.902731
0.973112
1.04589
1.12083
1.19767
1.27614
1.35594
1.43675
1.51824
1.60008
1.6819
1.76336
1.84409
1.92375
2.00199
2.07847
2.15286
2.22485
2.29414
2.36046
2.42353
2.48313
2.53901
2.59098
2.63887
2.68252
2.7218
2.75661
2.78686
2.81251
2.83353
2.8499
2.86165
2.8688
2.87143
2.86955
2.86339
2.85299
2.8385
2.82006
2.79795
2.77218
2.743
2.71059
2.67516
2.63692
2.59608
2.55288
2.50751
2.46019
2.41113
2.36054
2.30862
2.25558
2.20161
2.1469
2.09163
2.03597
1.98008
1.92414
1.86829
1.81266
1.7574
1.7026
1.64839
1.59486
1.54209
1.49016
1.43914
1.3891
1.34009
1.29216
1.24537
1.19973
1.15529
1.11206
1.07007
1.02931
0.989793
0.951524
0.914496
0.8787
0.844126
0.810757
0.778577
0.747565
0.717699
0.688955
0.661309
0.634733
0.609199
0.584678
0.561139
0.538553
0.516889
0.496118
0.476213
0.457142
0.438876
0.421387
0.404645
0.388623
0.373291
0.358624
0.344594
0.331177
0.318349
0.306084
0.29436
0.283155
0.272449
0.262221
0.252453
0.243127
0.234227
0.225739
0.21765
0.20995
0.202629
0.195684
0.18911
0.182912
0.177096
0.171676
0.166677
0.162131
0.158087
0.154612
0.151798
0.149765
0.14867
0.148693
0.150061
0.152845
0.157392
0.162311
0.168701
0
0.120577
0.0611603
0.0547539
0.057064
0.0582244
0.0575371
0.0555968
0.0530646
0.0505076
0.0483669
0.0469467
0.0464499
0.0470121
0.0487272
0.0516703
0.0559108
0.0615344
0.0686364
0.077336
0.0877505
0.100013
0.11426
0.130648
0.149334
0.170485
0.194279
0.220896
0.250502
0.283257
0.319306
0.358776
0.401774
0.448382
0.498656
0.552621
0.610273
0.671572
0.736445
0.804786
0.876453
0.95127
1.02903
1.1095
1.19242
1.2775
1.36443
1.45286
1.54248
1.63291
1.72378
1.81473
1.90538
1.99533
2.08421
2.17165
2.25729
2.34078
2.42178
2.49998
2.57507
2.64677
2.71482
2.77897
2.83902
2.89476
2.94602
2.99265
3.03454
3.07157
3.10369
3.13083
3.15299
3.17015
3.18234
3.18959
3.19199
3.18954
3.1825
3.17092
3.15494
3.1347
3.11041
3.08233
3.05045
3.0151
2.97647
2.93478
2.89025
2.84312
2.79361
2.74195
2.68835
2.63304
2.57624
2.51817
2.45902
2.399
2.33831
2.27713
2.21564
2.15402
2.09242
2.03101
1.96992
1.90929
1.84923
1.78986
1.73128
1.67357
1.61681
1.56108
1.50644
1.45295
1.40066
1.34961
1.29984
1.25137
1.20424
1.15844
1.114
1.07091
1.02918
0.988805
0.949766
0.912055
0.875654
0.840545
0.806706
0.774112
0.742738
0.712557
0.68354
0.655655
0.628871
0.603155
0.578476
0.554802
0.532101
0.510343
0.489494
0.469522
0.450398
0.432088
0.414564
0.397793
0.381749
0.366401
0.351724
0.337688
0.32427
0.311444
0.299187
0.287475
0.276286
0.265602
0.255402
0.24567
0.236388
0.227544
0.219126
0.211124
0.203531
0.196345
0.189568
0.183207
0.177274
0.171792
0.166793
0.162323
0.158444
0.155239
0.152814
0.151301
0.150843
0.151608
0.153608
0.157114
0.160723
0.16571
0
0.12885
0.0528988
0.0385587
0.0365265
0.0356056
0.0342776
0.0326939
0.0312684
0.030397
0.0303869
0.0314518
0.0337265
0.0372996
0.042246
0.048639
0.0565767
0.0661568
0.0775088
0.0907749
0.106124
0.12374
0.143816
0.166562
0.192187
0.220917
0.252969
0.288538
0.327802
0.37091
0.417989
0.469128
0.524384
0.583774
0.64728
0.714839
0.786351
0.861676
0.940637
1.02302
1.10858
1.19705
1.28811
1.38145
1.47672
1.57355
1.67157
1.77041
1.86966
1.96895
2.06787
2.16602
2.26303
2.35851
2.45209
2.5434
2.63211
2.71789
2.80042
2.87943
2.95465
3.02581
3.0927
3.15512
3.21288
3.26582
3.31381
3.35673
3.39451
3.42708
3.4544
3.47645
3.49325
3.5048
3.51118
3.51247
3.50861
3.49999
3.48658
3.46854
3.44603
3.41922
3.38839
3.35365
3.31512
3.27314
3.2279
3.17965
3.1286
3.07501
3.01909
2.96109
2.90122
2.83971
2.77679
2.71268
2.6476
2.58173
2.51528
2.44845
2.38141
2.31434
2.2474
2.18075
2.11454
2.04889
1.98392
1.91975
1.85648
1.79419
1.73296
1.67288
1.614
1.55638
1.50007
1.44511
1.39154
1.33938
1.28866
1.23939
1.19157
1.14521
1.10031
1.05686
1.01485
0.97426
0.93508
0.897286
0.860855
0.825759
0.791973
0.759465
0.728207
0.698163
0.6693
0.641584
0.614982
0.589459
0.564984
0.54152
0.519035
0.497494
0.476864
0.457111
0.438203
0.420108
0.402794
0.386232
0.370392
0.355246
0.340765
0.326923
0.313695
0.301056
0.288984
0.277455
0.26645
0.25595
0.245938
0.236398
0.227317
0.218686
0.210497
0.202745
0.195432
0.188563
0.182152
0.176217
0.17079
0.165913
0.161641
0.158048
0.155226
0.153283
0.15233
0.15249
0.153726
0.156265
0.158723
0.162535
0
0.136045
0.0473436
0.0265836
0.0211793
0.0187587
0.017165
0.0162307
0.0162012
0.0173618
0.0199425
0.0241027
0.0299422
0.0375427
0.0469724
0.0583203
0.0716909
0.0872297
0.105107
0.12552
0.148689
0.174844
0.204228
0.237077
0.273657
0.314186
0.358861
0.407841
0.461246
0.51915
0.581583
0.648524
0.719906
0.795618
0.875499
0.959352
1.04694
1.13799
1.23219
1.32924
1.42877
1.53042
1.63382
1.73859
1.84432
1.95062
2.05708
2.16332
2.26892
2.37352
2.47673
2.57819
2.67753
2.77442
2.86853
2.95954
3.04717
3.13112
3.21116
3.28704
3.35854
3.42546
3.48761
3.54486
3.59706
3.6441
3.68587
3.72232
3.7534
3.77907
3.79933
3.81418
3.82369
3.82788
3.82683
3.82056
3.80939
3.79331
3.77249
3.74708
3.71728
3.68323
3.64534
3.60343
3.55792
3.50905
3.45705
3.40214
3.34457
3.28457
3.22236
3.15818
3.09225
3.02481
2.95609
2.88629
2.81563
2.74432
2.67255
2.60051
2.52838
2.45635
2.38456
2.31318
2.24235
2.17219
2.10283
2.03437
1.96692
1.90057
1.83538
1.77144
1.70881
1.64755
1.58769
1.52929
1.47237
1.41696
1.36308
1.31074
1.25995
1.21071
1.16302
1.11687
1.07224
1.02912
0.987491
0.94733
0.908612
0.871308
0.835391
0.800828
0.767587
0.735632
0.704929
0.675441
0.647134
0.619972
0.593921
0.568944
0.545005
0.522068
0.500099
0.479061
0.458922
0.439646
0.421202
0.403558
0.386681
0.370543
0.355114
0.340366
0.326271
0.312805
0.299942
0.287659
0.275934
0.264748
0.254081
0.243919
0.234245
0.22505
0.216324
0.208062
0.200266
0.192938
0.186089
0.17974
0.173915
0.168654
0.164007
0.160037
0.156821
0.154448
0.153
0.152562
0.153071
0.154721
0.156171
0.158998
0
0.141383
0.0439729
0.0186879
0.011221
0.0082713
0.00722168
0.00770118
0.00987865
0.0140254
0.0203793
0.0291172
0.0403858
0.0542998
0.0709834
0.0905781
0.113249
0.13919
0.168613
0.201754
0.238843
0.280116
0.325791
0.376077
0.431101
0.490989
0.555789
0.625483
0.699994
0.779192
0.862892
0.950862
1.04283
1.13848
1.23749
1.33948
1.44409
1.55091
1.65957
1.76966
1.88079
1.99256
2.1046
2.21651
2.32791
2.43845
2.54778
2.65554
2.76142
2.86511
2.96631
3.06475
3.16015
3.25225
3.3408
3.42556
3.50632
3.58287
3.65503
3.72264
3.78552
3.84353
3.89653
3.94445
3.98719
4.02467
4.05683
4.08364
4.10508
4.12117
4.13191
4.13731
4.13754
4.13237
4.12232
4.10725
4.08734
4.06274
4.03359
4.00008
3.96238
3.92076
3.87526
3.82601
3.77338
3.71759
3.65886
3.59742
3.53349
3.4673
3.39909
3.32906
3.25745
3.1845
3.11041
3.03541
2.95969
2.88347
2.80692
2.73025
2.65363
2.57722
2.50119
2.42568
2.35083
2.27678
2.20362
2.13149
2.06046
1.99063
1.92207
1.85485
1.78903
1.72468
1.66182
1.60051
1.54077
1.48261
1.42607
1.37115
1.31785
1.26618
1.21614
1.1677
1.12086
1.0756
1.0319
0.98973
0.949072
0.909895
0.872168
0.835857
0.800928
0.767345
0.735071
0.704071
0.674307
0.645744
0.618344
0.59207
0.566885
0.54275
0.519631
0.497489
0.47629
0.455999
0.436581
0.418003
0.400233
0.38324
0.366992
0.351461
0.336618
0.322436
0.308889
0.295953
0.283605
0.271824
0.260591
0.249887
0.239698
0.230011
0.220817
0.21211
0.203888
0.196154
0.188917
0.182195
0.176009
0.170395
0.165395
0.161064
0.157466
0.154671
0.152738
0.151727
0.151552
0.152395
0.152968
0.15498
0
0.143126
0.0417562
0.0143717
0.00679167
0.00493141
0.00593576
0.00939379
0.0155414
0.0247597
0.0374393
0.0539358
0.0745557
0.0995735
0.12924
0.163784
0.203409
0.248299
0.298621
0.35448
0.415949
0.483044
0.555688
0.633809
0.717299
0.805901
0.899289
0.997076
1.09884
1.20412
1.31246
1.42339
1.53644
1.65116
1.7671
1.88383
2.00095
2.11807
2.23484
2.35092
2.46599
2.57974
2.69188
2.80215
2.9103
3.01609
3.11932
3.21978
3.31728
3.41165
3.50271
3.5903
3.67425
3.75441
3.83061
3.9027
3.97056
4.03405
4.09305
4.14745
4.19716
4.24207
4.28208
4.31714
4.34722
4.37226
4.39222
4.4071
4.41686
4.4216
4.42127
4.41582
4.40567
4.39064
4.37092
4.34656
4.31771
4.28449
4.24704
4.2055
4.16009
4.11098
4.05814
4.00198
3.94273
3.8806
3.8158
3.74854
3.67903
3.60751
3.53417
3.45923
3.38292
3.30545
3.22704
3.14788
3.06817
2.98811
2.90787
2.82765
2.7476
2.66789
2.58867
2.51008
2.43226
2.35531
2.27937
2.20452
2.13087
2.05849
1.98745
1.91784
1.84968
1.78305
1.71798
1.65451
1.59267
1.53248
1.47396
1.41711
1.36195
1.30846
1.25665
1.2065
1.15799
1.11112
1.06585
1.02217
0.980042
0.939441
0.900334
0.862688
0.826468
0.791636
0.758156
0.72599
0.695102
0.665454
0.637008
0.609725
0.583568
0.558498
0.534478
0.51147
0.489439
0.468348
0.448162
0.428847
0.41037
0.392698
0.375801
0.359647
0.344208
0.329455
0.315362
0.301905
0.289058
0.276799
0.265109
0.25397
0.243364
0.233279
0.223703
0.214631
0.206059
0.197988
0.190426
0.183386
0.176889
0.170964
0.165648
0.160986
0.157031
0.153836
0.151446
0.149897
0.149097
0.149219
0.14903
0.150383