/*--------------------------------*- C++ -*----------------------------------*\
  =========                 |
  \\      /  F ield         | OpenFOAM: The Open Source CFD Toolbox
   \\    /   O peration     | Website:  https://openfoam.org
    \\  /    A nd           | Version:  10
     \\/     M anipulation  |
\*---------------------------------------------------------------------------*/
FoamFile
{
    format      ascii;
    class       volVectorField;
    location    "234";
    object      U;
}
// * * * * * * * * * * * * * * * * * * * * * * * * * * * * * * * * * * * * * //

dimensions      [0 1 -1 0 0 0 0];

internalField   nonuniform List<vector> 
12225
(
(0.0792889 -0.0692421 0)
(0.149124 -0.0159584 0)
(0.200766 -0.00946097 0)
(0.247492 -0.00839527 0)
(0.288571 -0.00758884 0)
(0.324062 -0.00662127 0)
(0.354113 -0.00573868 0)
(0.379542 -0.0049948 0)
(0.401218 -0.00437549 0)
(0.419839 -0.00386463 0)
(0.435979 -0.00344796 0)
(0.450133 -0.00311719 0)
(0.462755 -0.00287455 0)
(0.474297 -0.00274218 0)
(0.485429 -0.00278281 0)
(0.496989 -0.00325851 0)
(0.512411 -0.00448048 0)
(0.533251 -0.0138114 0)
(0.204528 -0.0223796 0)
(0.255385 -0.0233966 0)
(0.323191 -0.0203958 0)
(0.38007 -0.0182238 0)
(0.428514 -0.0164571 0)
(0.470748 -0.014624 0)
(0.507353 -0.0129661 0)
(0.539131 -0.0115431 0)
(0.566882 -0.0103408 0)
(0.591274 -0.00933787 0)
(0.612872 -0.00851411 0)
(0.632174 -0.00786111 0)
(0.649637 -0.00739177 0)
(0.665706 -0.00716293 0)
(0.680959 -0.00732874 0)
(0.696024 -0.00836009 0)
(0.712468 -0.0115382 0)
(0.728575 -0.0208392 0)
(0.296251 -0.0313122 0)
(0.338011 -0.037364 0)
(0.405685 -0.0334122 0)
(0.461965 -0.0300471 0)
(0.509921 -0.0271533 0)
(0.552003 -0.0243729 0)
(0.58885 -0.0218854 0)
(0.621197 -0.0197314 0)
(0.649733 -0.0178944 0)
(0.675044 -0.016348 0)
(0.697639 -0.0150676 0)
(0.717969 -0.0140448 0)
(0.736447 -0.0133003 0)
(0.753466 -0.0129133 0)
(0.769461 -0.0130823 0)
(0.784775 -0.0143191 0)
(0.799818 -0.0177416 0)
(0.812344 -0.0255012 0)
(0.391169 -0.0438228 0)
(0.422165 -0.052071 0)
(0.48223 -0.0478564 0)
(0.534158 -0.0433594 0)
(0.579297 -0.0392633 0)
(0.619314 -0.035465 0)
(0.654678 -0.0320766 0)
(0.686004 -0.0291247 0)
(0.713861 -0.0265905 0)
(0.738741 -0.0244425 0)
(0.761082 -0.0226521 0)
(0.781279 -0.0212095 0)
(0.799689 -0.0201394 0)
(0.816637 -0.0195295 0)
(0.832428 -0.0195821 0)
(0.847196 -0.02074 0)
(0.860867 -0.0237482 0)
(0.871472 -0.0293283 0)
(0.492395 -0.0514209 0)
(0.512538 -0.0647853 0)
(0.561559 -0.0619011 0)
(0.607016 -0.0567833 0)
(0.647853 -0.0516749 0)
(0.684645 -0.0469519 0)
(0.717529 -0.042717 0)
(0.746935 -0.0390006 0)
(0.773294 -0.0357877 0)
(0.796992 -0.0330455 0)
(0.81839 -0.0307437 0)
(0.837815 -0.0288715 0)
(0.855561 -0.0274523 0)
(0.871883 -0.0265684 0)
(0.88698 -0.0263931 0)
(0.900857 -0.0272477 0)
(0.913308 -0.0295252 0)
(0.922732 -0.033201 0)
(0.60036 -0.0545053 0)
(0.610316 -0.0745851 0)
(0.646774 -0.0742559 0)
(0.68437 -0.0692991 0)
(0.719698 -0.063585 0)
(0.752326 -0.0581595 0)
(0.781941 -0.0532222 0)
(0.808731 -0.0488428 0)
(0.832964 -0.0450242 0)
(0.854913 -0.0417396 0)
(0.874848 -0.0389611 0)
(0.893023 -0.0366774 0)
(0.909667 -0.0349074 0)
(0.924964 -0.0337173 0)
(0.939033 -0.0332339 0)
(0.951811 -0.0336535 0)
(0.963111 -0.0351145 0)
(0.971665 -0.0372967 0)
(0.714676 -0.054186 0)
(0.71567 -0.08111 0)
(0.739293 -0.0842052 0)
(0.768024 -0.0802616 0)
(0.796891 -0.0744834 0)
(0.824527 -0.0686618 0)
(0.850177 -0.063226 0)
(0.873736 -0.0583277 0)
(0.895295 -0.0540085 0)
(0.914998 -0.0502586 0)
(0.933019 -0.0470583 0)
(0.949533 -0.0443979 0)
(0.964699 -0.0422895 0)
(0.978639 -0.0407782 0)
(0.99141 -0.0399409 0)
(1.00293 -0.0398694 0)
(1.01306 -0.0405433 0)
(1.02082 -0.0415722 0)
(0.834396 -0.0513109 0)
(0.828076 -0.084204 0)
(0.839644 -0.0912529 0)
(0.85884 -0.0891061 0)
(0.880583 -0.0838852 0)
(0.90251 -0.0780436 0)
(0.923567 -0.072366 0)
(0.943338 -0.0671332 0)
(0.961718 -0.0624491 0)
(0.978719 -0.0583356 0)
(0.994409 -0.0547884 0)
(1.00888 -0.0518024 0)
(1.02223 -0.0493838 0)
(1.03451 -0.0475563 0)
(1.04574 -0.0463523 0)
(1.05583 -0.0457876 0)
(1.06474 -0.0457574 0)
(1.07162 -0.0459011 0)
(0.958154 -0.0466594 0)
(0.946509 -0.0839275 0)
(0.947537 -0.0950422 0)
(0.957133 -0.0953238 0)
(0.971294 -0.0912647 0)
(0.986982 -0.0858457 0)
(1.00291 -0.0802296 0)
(1.01839 -0.074888 0)
(1.03313 -0.0700086 0)
(1.047 -0.0656602 0)
(1.05997 -0.0618634 0)
(1.07205 -0.0586228 0)
(1.08326 -0.0559419 0)
(1.0936 -0.0538264 0)
(1.10307 -0.052275 0)
(1.11157 -0.0512554 0)
(1.11911 -0.05063 0)
(1.12497 -0.0501036 0)
(1.08433 -0.0409958 0)
(1.06953 -0.0805916 0)
(1.06195 -0.095421 0)
(1.06264 -0.098493 0)
(1.06901 -0.0961168 0)
(1.07817 -0.0915754 0)
(1.08855 -0.0863639 0)
(1.09933 -0.081176 0)
(1.11003 -0.0763034 0)
(1.1204 -0.0718769 0)
(1.13029 -0.0679521 0)
(1.13964 -0.0645503 0)
(1.14841 -0.061677 0)
(1.15655 -0.0593272 0)
(1.16403 -0.057478 0)
(1.17076 -0.0560727 0)
(1.17679 -0.0549735 0)
(1.18142 -0.0539534 0)
(1.21121 -0.0349751 0)
(1.19524 -0.0747348 0)
(1.1813 -0.0924814 0)
(1.17429 -0.0983552 0)
(1.17319 -0.0980281 0)
(1.17577 -0.0947657 0)
(1.18039 -0.090309 0)
(1.18618 -0.0855535 0)
(1.19252 -0.0809133 0)
(1.19906 -0.0765899 0)
(1.20557 -0.0726828 0)
(1.2119 -0.0692365 0)
(1.21796 -0.0662647 0)
(1.22367 -0.0637597 0)
(1.22895 -0.0616898 0)
(1.23373 -0.0599914 0)
(1.23806 -0.0585446 0)
(1.24126 -0.0571821 0)
(1.3266 -0.0294769 0)
(1.31092 -0.0677254 0)
(1.29336 -0.0871204 0)
(1.2807 -0.0952283 0)
(1.27353 -0.0968757 0)
(1.27033 -0.0950443 0)
(1.26973 -0.0915553 0)
(1.27082 -0.0874407 0)
(1.273 -0.0832215 0)
(1.27582 -0.0791671 0)
(1.279 -0.075422 0)
(1.28234 -0.0720571 0)
(1.28571 -0.0690991 0)
(1.28899 -0.0665447 0)
(1.29208 -0.0643634 0)
(1.29491 -0.0624966 0)
(1.29753 -0.060843 0)
(1.29923 -0.0592993 0)
(1.43841 -0.0243194 0)
(1.42408 -0.0598356 0)
(1.40475 -0.0798817 0)
(1.38786 -0.0897134 0)
(1.37559 -0.0932058 0)
(1.36717 -0.0928885 0)
(1.36161 -0.090526 0)
(1.35813 -0.0872277 0)
(1.35614 -0.0835926 0)
(1.35519 -0.079955 0)
(1.35497 -0.0765017 0)
(1.35524 -0.073331 0)
(1.35581 -0.0704867 0)
(1.35656 -0.067975 0)
(1.35736 -0.0657729 0)
(1.35814 -0.0638326 0)
(1.35893 -0.0620733 0)
(1.35902 -0.0604511 0)
(1.56063 -0.0191875 0)
(1.54856 -0.0502294 0)
(1.5292 -0.0696911 0)
(1.50937 -0.0806089 0)
(1.49273 -0.0857821 0)
(1.47936 -0.0871112 0)
(1.46873 -0.0861388 0)
(1.46036 -0.0839443 0)
(1.45379 -0.081162 0)
(1.44861 -0.0781808 0)
(1.4445 -0.075228 0)
(1.4412 -0.0724321 0)
(1.43851 -0.0698578 0)
(1.43628 -0.0675272 0)
(1.43438 -0.0654312 0)
(1.43272 -0.0635389 0)
(1.43129 -0.0617972 0)
(1.42943 -0.0601966 0)
(1.68899 -0.0143706 0)
(1.67947 -0.0394274 0)
(1.66174 -0.0567371 0)
(1.64086 -0.0675735 0)
(1.62126 -0.0737417 0)
(1.60389 -0.0765046 0)
(1.58871 -0.0769851 0)
(1.57564 -0.0760809 0)
(1.56443 -0.0743982 0)
(1.55482 -0.0723305 0)
(1.54653 -0.0701242 0)
(1.53933 -0.0679308 0)
(1.53302 -0.0658356 0)
(1.52745 -0.0638794 0)
(1.52248 -0.0620717 0)
(1.518 -0.0604018 0)
(1.51399 -0.0588467 0)
(1.50985 -0.0574151 0)
(1.81513 -0.00991637 0)
(1.80781 -0.0280879 0)
(1.79262 -0.0416345 0)
(1.77251 -0.0508659 0)
(1.75185 -0.056847 0)
(1.73213 -0.0602907 0)
(1.71373 -0.0618492 0)
(1.69687 -0.0621383 0)
(1.68163 -0.0616246 0)
(1.66793 -0.0606305 0)
(1.65562 -0.0593764 0)
(1.64455 -0.0580097 0)
(1.63457 -0.0566232 0)
(1.62553 -0.0552704 0)
(1.61732 -0.0539773 0)
(1.60984 -0.0527527 0)
(1.60303 -0.0515975 0)
(1.59639 -0.0505354 0)
(1.924 -0.00566791 0)
(1.91819 -0.0164805 0)
(1.90544 -0.02503 0)
(1.88706 -0.0312253 0)
(1.86689 -0.0356095 0)
(1.84663 -0.0385433 0)
(1.82679 -0.0403214 0)
(1.80776 -0.0412536 0)
(1.78983 -0.0416014 0)
(1.77314 -0.0415571 0)
(1.75768 -0.0412605 0)
(1.74342 -0.0408124 0)
(1.73029 -0.0402831 0)
(1.71818 -0.0397186 0)
(1.70704 -0.0391469 0)
(1.69676 -0.0385856 0)
(1.6873 -0.0380479 0)
(1.67832 -0.0375655 0)
(1.99017 -0.00130828 0)
(1.98507 -0.00421752 0)
(1.97391 -0.00679339 0)
(1.95704 -0.00883911 0)
(1.93785 -0.0104729 0)
(1.91804 -0.0117694 0)
(1.89812 -0.0127717 0)
(1.8785 -0.0135431 0)
(1.85954 -0.0141476 0)
(1.84148 -0.0146335 0)
(1.82443 -0.0150356 0)
(1.80842 -0.0153801 0)
(1.79345 -0.0156865 0)
(1.77949 -0.0159683 0)
(1.7665 -0.016235 0)
(1.75442 -0.0164946 0)
(1.7432 -0.0167564 0)
(1.7327 -0.0170471 0)
(1.97278 0.00304428 0)
(1.96829 0.00868839 0)
(1.95749 0.0131421 0)
(1.94083 0.0163196 0)
(1.92177 0.0184357 0)
(1.9021 0.0196983 0)
(1.88238 0.0202844 0)
(1.86299 0.0203546 0)
(1.8443 0.0200424 0)
(1.82654 0.0194516 0)
(1.8098 0.0186624 0)
(1.7941 0.0177368 0)
(1.77943 0.0167228 0)
(1.76576 0.0156562 0)
(1.75304 0.0145638 0)
(1.74119 0.0134633 0)
(1.73016 0.0123641 0)
(1.72 0.011256 0)
(1.85389 0.00812516 0)
(1.84654 0.0231048 0)
(1.83219 0.0345843 0)
(1.81262 0.0424887 0)
(1.79193 0.0475592 0)
(1.77182 0.0504207 0)
(1.75269 0.0515945 0)
(1.73477 0.05156 0)
(1.71823 0.0507051 0)
(1.70308 0.0493118 0)
(1.68925 0.0475802 0)
(1.67663 0.0456528 0)
(1.66511 0.0436294 0)
(1.65458 0.0415783 0)
(1.64493 0.0395451 0)
(1.63607 0.037559 0)
(1.62791 0.0356353 0)
(1.62059 0.0337716 0)
(1.6912 0.0142788 0)
(1.68142 0.0384966 0)
(1.66394 0.0552615 0)
(1.64294 0.0656269 0)
(1.62294 0.0713264 0)
(1.60515 0.0736751 0)
(1.58948 0.0737315 0)
(1.57578 0.0723291 0)
(1.56389 0.0700555 0)
(1.55355 0.0673028 0)
(1.54452 0.0643217 0)
(1.53658 0.0612721 0)
(1.52956 0.0582535 0)
(1.52331 0.0553251 0)
(1.51772 0.0525201 0)
(1.51267 0.049855 0)
(1.50808 0.0473339 0)
(1.50411 0.0449484 0)
(1.49891 0.0216436 0)
(1.48571 0.0545676 0)
(1.46669 0.0742228 0)
(1.44779 0.0844758 0)
(1.43256 0.0886433 0)
(1.42094 0.0889084 0)
(1.41207 0.0868673 0)
(1.4053 0.0836192 0)
(1.40016 0.0797951 0)
(1.39624 0.0757682 0)
(1.39323 0.0717508 0)
(1.39088 0.0678605 0)
(1.38903 0.064159 0)
(1.38757 0.0606745 0)
(1.38638 0.0574152 0)
(1.38541 0.0543783 0)
(1.38458 0.0515537 0)
(1.38407 0.0489249 0)
(1.29314 0.0305285 0)
(1.27752 0.0697537 0)
(1.26113 0.0887103 0)
(1.24934 0.0960911 0)
(1.24305 0.0970963 0)
(1.24068 0.0946543 0)
(1.2407 0.0905159 0)
(1.24222 0.0857059 0)
(1.24464 0.0807639 0)
(1.24757 0.0759374 0)
(1.25075 0.0713506 0)
(1.25399 0.0670604 0)
(1.25721 0.0630825 0)
(1.26034 0.0594115 0)
(1.26333 0.0560314 0)
(1.26615 0.0529216 0)
(1.2688 0.0500609 0)
(1.27143 0.0474269 0)
(1.08551 0.0402448 0)
(1.07089 0.0811407 0)
(1.06281 0.0957131 0)
(1.06271 0.0986878 0)
(1.06821 0.0963184 0)
(1.07649 0.0916023 0)
(1.08596 0.0860501 0)
(1.09579 0.0804324 0)
(1.1055 0.0750449 0)
(1.11484 0.0700084 0)
(1.12367 0.0653647 0)
(1.13194 0.0611138 0)
(1.13964 0.0572364 0)
(1.14677 0.0537048 0)
(1.15336 0.050488 0)
(1.15943 0.0475547 0)
(1.16502 0.0448776 0)
(1.1703 0.0424326 0)
(0.884965 0.0489241 0)
(0.876079 0.085769 0)
(0.881791 0.0938427 0)
(0.896478 0.0925771 0)
(0.914461 0.0877854 0)
(0.933131 0.0818455 0)
(0.951388 0.0758598 0)
(0.968646 0.0701966 0)
(0.9847 0.064974 0)
(0.999507 0.06022 0)
(1.01309 0.0559202 0)
(1.02553 0.0520414 0)
(1.03689 0.048545 0)
(1.04726 0.0453908 0)
(1.05674 0.0425402 0)
(1.0654 0.0399573 0)
(1.07332 0.0376131 0)
(1.08066 0.0354861 0)
(0.69829 0.0538605 0)
(0.699774 0.0819464 0)
(0.723196 0.0837178 0)
(0.753197 0.0796097 0)
(0.78256 0.0737752 0)
(0.810299 0.0678066 0)
(0.835925 0.0622136 0)
(0.859272 0.0571089 0)
(0.880438 0.0525102 0)
(0.899592 0.0483949 0)
(0.916909 0.044721 0)
(0.932568 0.0414409 0)
(0.94674 0.0385086 0)
(0.959582 0.0358811 0)
(0.971235 0.0335199 0)
(0.981828 0.0313905 0)
(0.991458 0.0294651 0)
(1.00032 0.0277296 0)
(0.530078 0.0518709 0)
(0.54526 0.0697456 0)
(0.587357 0.0673462 0)
(0.63075 0.0621466 0)
(0.669507 0.0567155 0)
(0.704411 0.0516321 0)
(0.735749 0.0469999 0)
(0.763747 0.0428489 0)
(0.788753 0.0391621 0)
(0.811114 0.0358998 0)
(0.831135 0.0330142 0)
(0.849094 0.0304576 0)
(0.865235 0.0281864 0)
(0.879776 0.0261621 0)
(0.892902 0.0243513 0)
(0.904781 0.0227238 0)
(0.915539 0.0212549 0)
(0.92538 0.0199414 0)
(0.382206 0.0412405 0)
(0.412762 0.0512846 0)
(0.470199 0.0478156 0)
(0.52369 0.0431487 0)
(0.569268 0.0390763 0)
(0.609243 0.0353335 0)
(0.644563 0.0319216 0)
(0.675725 0.0288917 0)
(0.703256 0.0262271 0)
(0.727646 0.0238896 0)
(0.749312 0.0218381 0)
(0.768611 0.0200327 0)
(0.785849 0.0184382 0)
(0.801292 0.0170241 0)
(0.815161 0.0157646 0)
(0.827654 0.0146364 0)
(0.838921 0.0136165 0)
(0.849175 0.012712 0)
(0.251783 0.0300845 0)
(0.298435 0.0322299 0)
(0.362128 0.0294648 0)
(0.420561 0.0261511 0)
(0.46978 0.0235711 0)
(0.512373 0.0211389 0)
(0.549605 0.0188693 0)
(0.582093 0.016863 0)
(0.610488 0.0151179 0)
(0.6354 0.0136032 0)
(0.657335 0.0122869 0)
(0.676716 0.0111391 0)
(0.693896 0.0101335 0)
(0.709176 0.00924811 0)
(0.722806 0.00846503 0)
(0.735002 0.00776728 0)
(0.745927 0.00713107 0)
(0.755805 0.00656716 0)
(0.103984 0.0790073 0)
(0.181198 0.0254205 0)
(0.234645 0.0163656 0)
(0.287417 0.0138714 0)
(0.333194 0.0124406 0)
(0.372484 0.0110562 0)
(0.406298 0.00972826 0)
(0.43522 0.00856328 0)
(0.459964 0.00756588 0)
(0.481228 0.0067114 0)
(0.499577 0.00597713 0)
(0.515468 0.0053433 0)
(0.529277 0.00479292 0)
(0.541316 0.00431269 0)
(0.551841 0.0038899 0)
(0.56107 0.00351952 0)
(0.569153 0.0031779 0)
(0.576249 0.00287729 0)
(0.00125532 -0.00302099 -1.04239e-20)
(0.00557505 -0.0059166 1.24011e-20)
(0.0104773 -0.00644294 0)
(0.0145625 -0.0053829 0)
(0.017054 -0.00358814 0)
(0.0178504 -0.00167697 -9.57665e-21)
(0.0170055 -2.28876e-05 0)
(0.0149247 0.00123139 0)
(0.0118902 0.00213555 0)
(0.00809625 0.00283365 0)
(0.00364949 0.00346082 1.06313e-20)
(-0.00143296 0.00408188 0)
(-0.00720191 0.00472425 0)
(-0.0137294 0.00542707 0)
(-0.021069 0.00620912 0)
(-0.0292567 0.00706463 7.23225e-21)
(-0.0383094 0.0079729 0)
(-0.0482202 0.0089007 0)
(-0.0589498 0.00980425 0)
(-0.0704374 0.0106487 0)
(-0.0825995 0.0114084 0)
(-0.0953398 0.0120654 0)
(-0.108552 0.0126062 0)
(-0.122126 0.0130213 3.72173e-21)
(-0.135947 0.0133073 -3.50498e-21)
(-0.149908 0.0134658 3.31774e-21)
(-0.163904 0.0135032 3.15541e-21)
(-0.177841 0.0134291 0)
(-0.191632 0.0132552 0)
(-0.205202 0.0129942 -2.78025e-21)
(-0.218484 0.0126589 -2.68254e-21)
(-0.231423 0.0122617 0)
(-0.243972 0.011814 0)
(-0.256093 0.0113263 -2.44098e-21)
(-0.267754 0.0108077 0)
(-0.278931 0.010266 0)
(-0.289603 0.00970791 2.24654e-21)
(-0.299757 0.0091387 0)
(-0.30938 0.00856287 2.12974e-21)
(-0.318464 0.0079838 4.14623e-21)
(-0.327003 0.00740425 0)
(-0.334992 0.00682613 0)
(-0.342428 0.00625091 0)
(-0.349309 0.00567934 0)
(-0.355632 0.00511183 0)
(-0.361396 0.00454806 3.46086e-21)
(-0.366601 0.00398732 3.33982e-21)
(-0.371244 0.00342812 3.21562e-21)
(-0.375322 0.00286851 0)
(-0.378833 0.00230584 -2.95637e-21)
(-0.38177 0.00173729 0)
(-0.384128 0.00116072 2.68075e-21)
(-0.385903 0.00057869 2.53632e-21)
(-0.387093 3.91305e-06 0)
(-0.387683 -0.000538087 0)
(-0.387644 -0.00101763 0)
(-0.387109 -0.00144145 1.90459e-21)
(-0.386075 -0.00183559 0)
(-0.384566 -0.00220963 0)
(-0.382594 -0.00256856 0)
(-0.380171 -0.0029143 0)
(-0.377307 -0.00324774 0)
(-0.374011 -0.00356916 0)
(-0.370294 -0.00387862 0)
(-0.366166 -0.00417606 0)
(-0.361638 -0.00446138 -1.12178e-22)
(-0.356721 -0.0047345 0)
(-0.351427 -0.0049953 0)
(-0.345769 -0.00524377 -6.12237e-22)
(-0.33976 -0.00547981 -8.69258e-22)
(-0.333412 -0.0057035 0)
(-0.326739 -0.00591475 1.40779e-21)
(-0.319755 -0.00611373 -1.68974e-21)
(-0.312474 -0.0063004 0)
(-0.304911 -0.00647502 2.28026e-21)
(-0.297079 -0.00663758 0)
(-0.288995 -0.00678844 0)
(-0.280672 -0.00692765 -3.23681e-21)
(-0.272126 -0.00705552 0)
(-0.263371 -0.0071719 3.92554e-21)
(-0.254422 -0.00727709 0)
(-0.245294 -0.00737281 -4.65898e-21)
(-0.236003 -0.00745917 -5.04374e-21)
(-0.226562 -0.00753405 -5.44087e-21)
(-0.216988 -0.00759862 -1.17023e-20)
(-0.207293 -0.00765429 1.25507e-20)
(-0.197492 -0.00770114 0)
(-0.1876 -0.00773909 0)
(-0.177629 -0.00776868 0)
(-0.167596 -0.00779028 1.62512e-20)
(-0.15751 -0.00780403 1.72618e-20)
(-0.147385 -0.00781039 -1.83105e-20)
(-0.137233 -0.00780962 0)
(-0.127066 -0.00780222 2.05321e-20)
(-0.116897 -0.00778857 2.17104e-20)
(-0.106737 -0.00776913 2.29375e-20)
(-0.0965969 -0.00774427 0)
(-0.0864871 -0.00771443 0)
(-0.0764175 -0.00767995 0)
(-0.0663979 -0.00764127 2.84072e-20)
(-0.0564371 -0.00759875 0)
(-0.0465439 -0.00755273 0)
(-0.0367263 -0.00750355 -3.32244e-20)
(-0.0269924 -0.00745155 0)
(-0.017351 -0.00739737 0)
(-0.00781503 -0.00733382 -3.88312e-20)
(0.00160869 -0.0072326 0)
(0.0109238 -0.0070797 0)
(0.0201268 -0.00689975 3.99924e-20)
(0.0292066 -0.00671423 3.97336e-20)
(0.0381545 -0.00652949 0)
(0.0469649 -0.00634669 -3.92361e-20)
(0.055634 -0.00616614 0)
(0.0641584 -0.00598798 3.87636e-20)
(0.072535 -0.00581231 0)
(0.0807612 -0.0056392 3.83143e-20)
(0.0888346 -0.00546868 3.8098e-20)
(0.096753 -0.00530085 0)
(0.104515 -0.00513575 0)
(0.112118 -0.00497347 0)
(0.119562 -0.00481402 0)
(0.126845 -0.00465751 0)
(0.133967 -0.00450394 0)
(0.140926 -0.00435342 0)
(0.147724 -0.00420589 3.65529e-20)
(0.154359 -0.00406147 -3.63819e-20)
(0.160833 -0.00392011 0)
(0.167146 -0.00378192 0)
(0.173297 -0.00364681 0)
(0.179289 -0.00351488 0)
(0.185122 -0.00338604 -7.11935e-20)
(0.190797 -0.00326042 0)
(0.196315 -0.00313788 7.06287e-20)
(0.201678 -0.00301852 -7.03594e-20)
(0.206887 -0.0029022 0)
(0.211944 -0.00278902 0)
(0.216851 -0.00267887 0)
(0.221609 -0.00257178 6.93673e-20)
(0.226221 -0.00246765 6.91398e-20)
(0.230689 -0.0023665 0)
(0.235014 -0.00226828 6.87084e-20)
(0.239199 -0.00217295 6.85043e-20)
(0.243245 -0.00208049 -6.83078e-20)
(0.247155 -0.00199086 0)
(0.250931 -0.00190398 0)
(0.254575 -0.00181982 -6.77626e-20)
(0.25809 -0.00173831 0)
(0.261477 -0.00165939 0)
(0.264741 -0.001583 0)
(0.267882 -0.0015091 0)
(0.270903 -0.00143761 6.6992e-20)
(0.273806 -0.00136848 6.6857e-20)
(0.276594 -0.00130164 0)
(0.279269 -0.00123703 6.66047e-20)
(0.281834 -0.00117458 0)
(0.28429 -0.00111421 0)
(0.286639 -0.00105584 6.62687e-20)
(0.288884 -0.000999376 0)
(0.291026 -0.00094467 6.60715e-20)
(0.293066 -0.000891608 0)
(0.295007 -0.000840098 0)
(0.296848 -0.000789983 6.58153e-20)
(0.298592 -0.000741024 0)
(0.300236 -0.000692943 6.56722e-20)
(0.301781 -0.000645364 0)
(0.303224 -0.000597817 0)
(0.304561 -0.000549655 0)
(0.305786 -0.000500022 -6.54717e-20)
(0.306889 -0.000447586 0)
(0.307855 -0.000390501 6.54407e-20)
(0.308663 -0.000323546 0)
(0.309263 -0.000236981 0)
(0.309571 -0.000124877 0)
(0.309516 1.75725e-05 0)
(0.308991 0.000203645 0)
(0.307744 0.000472425 0)
(0.305608 0.000885011 0)
(0.301075 0.00161016 -1.34976e-19)
(0.29605 0.00290282 0)
(0.275255 0.00540108 0)
(0.00144761 -0.0107472 2.96853e-20)
(0.00505014 -0.0161554 -2.62376e-20)
(0.00657782 -0.0131388 0)
(0.00618927 -0.00793112 9.52107e-21)
(0.00427306 -0.00245646 0)
(0.000999208 0.00260089 3.98544e-21)
(-0.00344261 0.00692426 -7.47813e-21)
(-0.00903123 0.0104474 -7.06537e-21)
(-0.0157028 0.0133028 0)
(-0.0233982 0.0157108 -6.35363e-21)
(-0.0320601 0.0178864 -3.04947e-21)
(-0.0416126 0.0199855 0)
(-0.0519661 0.0220916 0)
(-0.0630456 0.0242243 0)
(-0.074785 0.026356 0)
(-0.0871083 0.028432 -2.31245e-21)
(-0.0999242 0.0303899 0)
(-0.113127 0.0321759 4.08438e-21)
(-0.126614 0.0337438 0)
(-0.140286 0.035052 0)
(-0.154044 0.0360711 -3.53944e-21)
(-0.167793 0.0367852 0)
(-0.181442 0.0371941 3.2666e-21)
(-0.194909 0.0373095 -1.59693e-21)
(-0.208124 0.037151 1.54431e-21)
(-0.221027 0.0367437 -1.49748e-21)
(-0.233569 0.0361162 -1.45565e-21)
(-0.245711 0.0352987 0)
(-0.257423 0.0343215 0)
(-0.268681 0.0332134 1.35296e-21)
(-0.279468 0.0320009 -1.29975e-21)
(-0.289773 0.0307079 0)
(-0.299589 0.0293552 0)
(-0.308911 0.0279606 1.24683e-21)
(-0.317737 0.0265389 0)
(-0.326067 0.0251021 0)
(-0.333902 0.0236601 -1.17503e-21)
(-0.341243 0.0222203 0)
(-0.348093 0.0207885 1.11303e-21)
(-0.354453 0.0193691 -2.203e-21)
(-0.360326 0.0179651 0)
(-0.365714 0.0165788 0)
(-0.370618 0.0152116 -4.07347e-21)
(-0.37504 0.0138642 -3.96318e-21)
(-0.378982 0.0125371 -3.84863e-21)
(-0.382446 0.0112303 1.86436e-21)
(-0.385433 0.00994345 -1.8011e-21)
(-0.387947 0.00867605 -5.21154e-21)
(-0.38999 0.00742753 3.34329e-21)
(-0.391567 0.00619721 1.5934e-21)
(-0.392686 0.0049846 0)
(-0.393354 0.00378906 -1.44159e-21)
(-0.393585 0.00261122 1.39393e-21)
(-0.393396 0.00145644 0)
(-0.392809 0.000339683 0)
(-0.391861 -0.000716564 0)
(-0.390484 -0.00171103 -1.01189e-21)
(-0.388672 -0.00265931 0)
(-0.386423 -0.00356883 1.69705e-21)
(-0.383741 -0.00444393 0)
(-0.38063 -0.0052865 1.29925e-21)
(-0.377098 -0.0060973 0)
(-0.373153 -0.00687643 -8.79345e-22)
(-0.368803 -0.00762369 0)
(-0.364058 -0.00833879 4.37656e-22)
(-0.358928 -0.00902138 -1.5007e-22)
(-0.353423 -0.00967119 0)
(-0.347555 -0.0102879 2.64812e-22)
(-0.341334 -0.0108715 3.06783e-22)
(-0.334773 -0.0114217 4.33641e-22)
(-0.327885 -0.0119386 0)
(-0.320681 -0.0124222 5.78755e-22)
(-0.313175 -0.0128727 8.28822e-22)
(-0.30538 -0.0132904 0)
(-0.29731 -0.0136755 -1.10412e-21)
(-0.288978 -0.0140284 2.36074e-21)
(-0.280398 -0.0143497 0)
(-0.271586 -0.01464 1.53424e-21)
(-0.262554 -0.0149001 0)
(-0.253316 -0.0151306 -5.35502e-21)
(-0.243888 -0.0153325 0)
(-0.234283 -0.0155058 6.26992e-21)
(-0.224515 -0.0156501 2.29539e-21)
(-0.214598 -0.0157674 -2.30377e-21)
(-0.204547 -0.0158599 -4.92529e-21)
(-0.194375 -0.0159278 5.24763e-21)
(-0.184096 -0.0159717 0)
(-0.173722 -0.0159923 0)
(-0.163268 -0.0159909 0)
(-0.152747 -0.0159683 -2.03862e-20)
(-0.14217 -0.0159255 -7.24901e-21)
(-0.13155 -0.0158635 7.60082e-21)
(-0.120897 -0.0157831 0)
(-0.110225 -0.0156855 7.99311e-21)
(-0.0995442 -0.0155717 -8.68339e-21)
(-0.0888659 -0.0154429 -9.05356e-21)
(-0.0782004 -0.0153 0)
(-0.0675578 -0.0151442 0)
(-0.0569477 -0.0149763 0)
(-0.0463795 -0.0147975 -1.05836e-20)
(-0.0358618 -0.0146086 0)
(-0.0254031 -0.0144104 2.24356e-20)
(-0.0150114 -0.0142036 3.50363e-20)
(-0.00469445 -0.0139885 -2.40675e-20)
(0.00554154 -0.0137655 0)
(0.0156942 -0.0135323 -1.233e-20)
(0.0257574 -0.0132807 0)
(0.0357155 -0.0130074 -2.55802e-20)
(0.0455578 -0.0127204 1.27913e-20)
(0.0552823 -0.0124274 1.29339e-20)
(0.0648866 -0.0121321 0)
(0.0743669 -0.0118361 4.01377e-20)
(0.0837192 -0.0115403 -2.69177e-20)
(0.0929402 -0.0112451 -1.37022e-20)
(0.102027 -0.0109511 0)
(0.110976 -0.0106586 -1.39192e-20)
(0.119786 -0.010368 -4.18362e-20)
(0.128453 -0.0100797 0)
(0.136978 -0.00979399 -2.82137e-20)
(0.145357 -0.00951121 -2.84018e-20)
(0.153589 -0.00923164 -2.8583e-20)
(0.161675 -0.00895559 0)
(0.169611 -0.0086833 0)
(0.177399 -0.00841502 0)
(0.185038 -0.00815094 1.45337e-20)
(0.192528 -0.00789128 1.4782e-20)
(0.199869 -0.00763616 0)
(0.207061 -0.0073858 2.96796e-20)
(0.214105 -0.00714025 2.98152e-20)
(0.221002 -0.0068997 0)
(0.227752 -0.00666416 3.02162e-20)
(0.234357 -0.00643378 6.03928e-20)
(0.240817 -0.00620854 -3.04486e-20)
(0.247135 -0.00598857 -3.03033e-20)
(0.25331 -0.00577382 0)
(0.259345 -0.00556439 0)
(0.265242 -0.00536023 0)
(0.271001 -0.00516135 -3.09738e-20)
(0.276625 -0.00496771 3.08577e-20)
(0.282116 -0.00477932 6.21252e-20)
(0.287476 -0.00459612 -3.12575e-20)
(0.292705 -0.00441808 3.11577e-20)
(0.297807 -0.00424517 3.14361e-20)
(0.302782 -0.00407731 0)
(0.307633 -0.00391444 0)
(0.312363 -0.00375647 -3.1528e-20)
(0.316973 -0.00360331 0)
(0.321465 -0.00345487 0)
(0.325842 -0.00331108 6.37208e-20)
(0.330105 -0.00317182 0)
(0.334258 -0.003037 3.19537e-20)
(0.338301 -0.00290651 -3.21637e-20)
(0.342237 -0.00278025 0)
(0.346068 -0.00265806 3.21928e-20)
(0.349796 -0.00253983 0)
(0.353423 -0.00242539 0)
(0.356951 -0.0023146 -3.25286e-20)
(0.360381 -0.00220726 6.50961e-20)
(0.363715 -0.00210317 -3.26691e-20)
(0.366955 -0.00200205 0)
(0.370101 -0.00190357 0)
(0.373154 -0.00180733 3.27889e-20)
(0.376115 -0.00171287 0)
(0.378983 -0.00161953 3.29329e-20)
(0.381757 -0.00152649 0)
(0.384434 -0.00143262 0)
(0.38701 -0.00133646 0)
(0.38948 -0.00123592 3.32978e-20)
(0.391834 -0.00112801 0)
(0.394059 -0.00100816 -3.34577e-20)
(0.396134 -0.000867771 0)
(0.398044 -0.000694447 0)
(0.399766 -0.000475137 6.74644e-20)
(0.40123 -0.00019229 -6.77168e-20)
(0.402346 0.000190849 0)
(0.402953 0.000736673 0)
(0.402955 0.0015977 0)
(0.401569 0.00298301 2.08286e-19)
(0.399973 0.00562142 0)
(0.391586 0.0105083 -1.44542e-19)
(0.000751919 -0.0152195 -2.98906e-22)
(0.000134937 -0.0162432 2.70399e-20)
(-0.00272555 -0.00870425 0)
(-0.00688674 -0.000581421 -1.18673e-20)
(-0.0120738 0.00700396 0)
(-0.0181033 0.0138203 0)
(-0.0249159 0.0198296 3.58974e-23)
(-0.0325225 0.0250654 3.73091e-21)
(-0.0409371 0.0296253 3.50463e-21)
(-0.0501484 0.0336538 3.38153e-21)
(-0.06011 0.0373008 0)
(-0.0707436 0.0406837 0)
(-0.0819464 0.0438691 -2.93578e-21)
(-0.0936036 0.0468682 -5.63109e-21)
(-0.1056 0.0496516 5.40414e-21)
(-0.117824 0.0521685 0)
(-0.13017 0.0543633 4.99433e-21)
(-0.142547 0.0561881 -2.42809e-21)
(-0.154871 0.0576103 0)
(-0.167067 0.0586114 4.49457e-21)
(-0.179074 0.059186 2.18908e-21)
(-0.190844 0.0593421 -4.22758e-21)
(-0.202341 0.0590996 -2.06319e-21)
(-0.213536 0.0584889 0)
(-0.224411 0.0575475 3.91384e-21)
(-0.234951 0.0563165 3.82826e-21)
(-0.245145 0.0548379 0)
(-0.254987 0.0531532 3.67831e-21)
(-0.264471 0.0513013 0)
(-0.273593 0.0493177 3.54911e-21)
(-0.282351 0.0472342 1.74858e-21)
(-0.29074 0.0450781 0)
(-0.298759 0.0428729 0)
(-0.306402 0.0406378 0)
(-0.313668 0.0383887 0)
(-0.320552 0.0361379 0)
(-0.32705 0.0338953 0)
(-0.333158 0.0316682 3.09932e-21)
(-0.338873 0.0294623 -4.56456e-21)
(-0.344189 0.0272816 0)
(-0.349102 0.0251289 0)
(-0.35361 0.0230062 0)
(-0.357707 0.0209148 3.87624e-24)
(-0.361391 0.0188555 2.71009e-21)
(-0.364659 0.0168289 5.26528e-21)
(-0.367509 0.0148354 -5.10572e-21)
(-0.369938 0.0128755 -2.47138e-21)
(-0.371945 0.0109497 2.3796e-21)
(-0.373532 0.00905893 8.27454e-24)
(-0.374698 0.00720478 2.20288e-21)
(-0.375447 0.0053895 0)
(-0.375782 0.00361645 2.00536e-21)
(-0.375708 0.00189041 1.83427e-23)
(-0.375227 0.000217165 0)
(-0.374339 -0.00139941 0)
(-0.37304 -0.00296438 -1.55971e-21)
(-0.371323 -0.00448256 0)
(-0.369188 -0.00595288 0)
(-0.366638 -0.00737487 1.22096e-21)
(-0.363674 -0.00874817 2.1076e-21)
(-0.360303 -0.0100723 -8.77618e-22)
(-0.356531 -0.0113466 0)
(-0.352364 -0.0125704 5.9188e-22)
(-0.34781 -0.013743 0)
(-0.342878 -0.0148636 3.97513e-22)
(-0.337577 -0.0159317 1.39695e-22)
(-0.331917 -0.0169466 -8.06039e-23)
(-0.325908 -0.0179079 5.68214e-23)
(-0.319561 -0.0188155 0)
(-0.312886 -0.019669 -8.77407e-22)
(-0.305896 -0.0204686 0)
(-0.298603 -0.0212143 -2.38259e-21)
(-0.291019 -0.0219064 -1.88178e-21)
(-0.283156 -0.0225452 -2.22595e-21)
(-0.275027 -0.0231314 2.57448e-21)
(-0.266646 -0.0236656 -4.46846e-21)
(-0.258026 -0.0241486 0)
(-0.24918 -0.0245814 0)
(-0.240122 -0.0249651 4.0082e-21)
(-0.230866 -0.025301 6.64808e-21)
(-0.221424 -0.0255901 0)
(-0.211811 -0.0258337 -2.64753e-21)
(-0.20204 -0.0260317 0)
(-0.192124 -0.0261858 8.90425e-21)
(-0.182076 -0.0262989 1.83046e-22)
(-0.171911 -0.0263723 -1.85195e-22)
(-0.161641 -0.0264071 -7.02793e-21)
(-0.151279 -0.0264046 0)
(-0.140838 -0.0263664 7.80671e-21)
(-0.13033 -0.0262941 1.91953e-22)
(-0.119766 -0.0261894 0)
(-0.10916 -0.0260537 0)
(-0.0985211 -0.0258886 0)
(-0.0878616 -0.0256958 -9.98001e-21)
(-0.0771922 -0.0254771 0)
(-0.0665236 -0.0252342 0)
(-0.0558657 -0.0249688 0)
(-0.0452283 -0.0246823 0)
(-0.0346209 -0.0243764 0)
(-0.0240524 -0.0240526 -1.22019e-20)
(-0.0135313 -0.0237122 0)
(-0.00306559 -0.023357 -1.31969e-20)
(0.00733698 -0.0229885 -1.35085e-20)
(0.0176688 -0.0226079 1.37504e-20)
(0.0279227 -0.0222155 0)
(0.0380927 -0.0218117 1.42138e-20)
(0.0481726 -0.0213982 0)
(0.0581545 -0.020976 1.46504e-20)
(0.0680313 -0.0205457 -1.48592e-20)
(0.0777993 -0.0201091 -4.48486e-20)
(0.0874546 -0.0196685 0)
(0.0969931 -0.0192254 -4.60284e-20)
(0.106411 -0.0187807 -1.53226e-20)
(0.115704 -0.0183355 0)
(0.124869 -0.0178906 -3.16827e-20)
(0.133904 -0.0174467 -3.20296e-20)
(0.142806 -0.0170045 4.869e-20)
(0.151573 -0.0165646 0)
(0.160203 -0.0161277 1.66382e-20)
(0.168695 -0.0156943 1.67889e-20)
(0.177047 -0.015265 5.05559e-20)
(0.185258 -0.0148402 0)
(0.193328 -0.0144204 0)
(0.201256 -0.014006 0)
(0.209042 -0.0135974 1.726e-20)
(0.216686 -0.013195 0)
(0.224187 -0.012799 0)
(0.231547 -0.0124097 -1.78531e-20)
(0.238765 -0.0120274 -1.79709e-20)
(0.245843 -0.0116522 0)
(0.25278 -0.0112844 0)
(0.259579 -0.0109241 -3.66146e-20)
(0.26624 -0.0105714 0)
(0.272765 -0.0102264 3.7038e-20)
(0.279154 -0.00988913 3.70836e-20)
(0.285409 -0.00955976 0)
(0.291532 -0.00923827 0)
(0.297524 -0.00892464 -3.76888e-20)
(0.303388 -0.00861886 -1.38741e-22)
(0.309124 -0.00832093 -1.33984e-22)
(0.314734 -0.00803084 0)
(0.320221 -0.00774855 -7.70124e-20)
(0.325586 -0.00747401 0)
(0.33083 -0.00720712 0)
(0.335957 -0.00694781 0)
(0.340968 -0.00669595 3.92586e-20)
(0.345864 -0.00645143 0)
(0.350649 -0.00621412 -7.89771e-20)
(0.355324 -0.00598392 -3.97519e-20)
(0.359891 -0.00576064 0)
(0.364352 -0.00554418 -4.00709e-20)
(0.36871 -0.00533435 0)
(0.372966 -0.005131 0)
(0.377123 -0.00493394 -1.21447e-19)
(0.381182 -0.00474299 8.12206e-20)
(0.385145 -0.0045579 0)
(0.389014 -0.00437845 8.18331e-20)
(0.392791 -0.00420434 -4.11386e-20)
(0.396477 -0.00403523 0)
(0.400074 -0.00387071 0)
(0.403583 -0.0037103 0)
(0.407004 -0.00355336 -1.25051e-19)
(0.410339 -0.00339915 0)
(0.413586 -0.00324664 -4.20155e-20)
(0.416745 -0.00309455 0)
(0.419814 -0.00294113 0)
(0.422789 -0.00278409 0)
(0.425664 -0.00262022 0)
(0.428432 -0.00244506 0)
(0.431081 -0.00225205 0)
(0.433593 -0.00203164 -8.61007e-20)
(0.435949 -0.00176995 0)
(0.438122 -0.00144676 -4.34871e-20)
(0.440064 -0.00103233 1.31062e-19)
(0.44171 -0.000476684 0)
(0.442936 0.000302667 0)
(0.443673 0.001481 -8.89344e-20)
(0.443456 0.00331638 -8.98095e-20)
(0.443109 0.00650681 9.06522e-20)
(0.439464 0.012132 9.32019e-20)
(-0.000652467 -0.0132571 -5.04015e-20)
(-0.00512882 -0.00790612 -3.25775e-20)
(-0.010909 0.00242603 -1.21353e-20)
(-0.0174561 0.012118 -4.26086e-21)
(-0.0246845 0.0209272 0)
(-0.0323911 0.0288908 6.22028e-21)
(-0.0405433 0.0360543 -2.82876e-21)
(-0.0491719 0.0424648 0)
(-0.0582985 0.0481874 -2.54703e-21)
(-0.0679153 0.0533055 0)
(-0.0779812 0.057903 4.63228e-21)
(-0.0884263 0.0620449 0)
(-0.0991606 0.065765 2.14428e-21)
(-0.110085 0.0690676 4.12464e-21)
(-0.121103 0.0719358 -3.9717e-21)
(-0.132126 0.0743441 0)
(-0.143078 0.0762682 -3.69858e-21)
(-0.153897 0.0776918 0)
(-0.164535 0.0786085 0)