# vtk DataFile Version 2.0
tracks
ASCII
DATASET POLYDATA
POINTS 10914 float
-0.0206 0.00100077 1e-05 -0.02058 0.00100072 1e-05 -0.02056 0.00100062 1e-05 -0.02054 0.00100046
1e-05 -0.02052 0.00100026 1e-05 -0.0205 0.001 1e-05 -0.0202034 0.000996197 1e-05
-0.0199071 0.00098489 1e-05 -0.0196111 0.0009662 1e-05 -0.0193156 0.000939965 1e-05 -0.0190172
0.000906935 1e-05 -0.0187132 0.00087312 1e-05 -0.0184093 0.000839451 1e-05 -0.0181054 0.000805928
1e-05 -0.0178013 0.000773785 1e-05 -0.0174976 0.000743974 1e-05 -0.0173142 0.000727293 1e-05
-0.0171308 0.000711451 1e-05 -0.0169473 0.000696316 1e-05 -0.0167638 0.000681816 1e-05 -0.0164828
0.000660566 1e-05 -0.016394 0.00065429 1e-05 -0.0163051 0.000648155 1e-05 -0.0162163 0.000642159
1e-05 -0.0161274 0.000636299 1e-05 -0.0160387 0.00063057 1e-05 -0.0157586 0.000612699 1e-05
-0.0154784 0.00059607 1e-05 -0.0151981 0.000580482 1e-05 -0.0149178 0.000565885 1e-05 -0.0146381
0.000552094 1e-05 -0.0143692 0.000539215 1e-05 -0.0141002 0.000527259 1e-05 -0.0138312 0.00051616
1e-05 -0.0135621 0.000505683 1e-05 -0.0132934 0.000495487 1e-05 -0.0130353 0.000485948 1e-05
-0.0127771 0.000477112 1e-05 -0.0125188 0.000468938 1e-05 -0.0122606 0.000461136 1e-05 -0.0120025
0.000453506 1e-05 -0.0117547 0.000446335 1e-05 -0.0115068 0.000439697 1e-05 -0.0112589 0.000433507
1e-05 -0.011011 0.000427545 1e-05 -0.0107632 0.000421727 1e-05 -0.0105252 0.00041623 1e-05
-0.0102873 0.000411141 1e-05 -0.0100493 0.000406308 1e-05 -0.00981129 0.000401643 1e-05 -0.00957337
0.000397116 1e-05 -0.00934491 0.000392816 1e-05 -0.00911645 0.000388833 1e-05 -0.00888798 0.00038499
1e-05 -0.00865951 0.000381269 1e-05 -0.00843108 0.00037767 1e-05 -0.00821175 0.00037424 1e-05
-0.00799242 0.000371035 1e-05 -0.00777308 0.000367922 1e-05 -0.00755375 0.000364901 1e-05 -0.00733443
0.00036197 1e-05 -0.00712387 0.000359183 1e-05 -0.0069133 0.000356548 1e-05 -0.00670273 0.000353981
1e-05 -0.00649216 0.000351482 1e-05 -0.0062816 0.00034905 1e-05 -0.00607944 0.000346742 1e-05
-0.00587729 0.000344534 1e-05 -0.00567513 0.000342375 1e-05 -0.00547298 0.000340265 1e-05 -0.00527083
0.000338204 1e-05 -0.00507675 0.00033625 1e-05 -0.00488267 0.000334356 1e-05 -0.0046886 0.000332494
1e-05 -0.00449452 0.000330664 1e-05 -0.00430044 0.000328866 1e-05 -0.00411412 0.000327159 1e-05
-0.0039278 0.000325478 1e-05 -0.00374147 0.00032381 1e-05 -0.00355515 0.000322154 1e-05 -0.00336883
0.000320511 1e-05 -0.00333071 0.000320177 1e-05 -0.0032926 0.000319842 1e-05 -0.00325448 0.000319507
1e-05 -0.00321636 0.000319171 1e-05 -0.00317905 0.000318841 1e-05 -0.00303813 0.000317591 1e-05
-0.0028972 0.00031633 1e-05 -0.00275628 0.000315058 1e-05 -0.00261536 0.000313775 1e-05 -0.00247443
0.000312482 1e-05 -0.0023027 0.000310873 1e-05 -0.00213097 0.000309208 1e-05 -0.00195924 0.000307461
1e-05 -0.00178751 0.000305633 1e-05 -0.00161577 0.000303726 1e-05 -0.0014509 0.000301772 1e-05
-0.00128603 0.000299616 1e-05 -0.00112117 0.000297146 1e-05 -0.000956311 0.000294368 1e-05 -0.000791418
0.000291284 1e-05 -0.000633135 0.000287882 1e-05 -0.000474867 0.00028382 1e-05 -0.000316625 0.000278817
1e-05 -0.000158416 0.000272887 1e-05 0 0.00026603 1e-05 0.000105677 0.000260637 1e-05
0.000211282 0.000253973 1e-05 0.00031685 0.000246746 1e-05 0.000422377 0.000238946 1e-05 0.000528387
0.000230832 1e-05 0.000634886 0.000223445 1e-05 0.000741326 0.000215249 1e-05 0.000847727 0.000206565
1e-05 0.000954124 0.000197821 1e-05 0.00106088 0.000189666 1e-05 0.00116821 0.000182288 1e-05
0.00127551 0.000174581 1e-05 0.00138279 0.000166556 1e-05 0.00149008 0.000158662 1e-05 0.00159752
0.000151328 1e-05 0.00170568 0.000144538 1e-05 0.00181383 0.000137625 1e-05 0.00192198 0.00013059
1e-05 0.00203013 0.000123699 1e-05 0.00213833 0.000117238 1e-05 0.00224733 0.000111173 1e-05
0.00235633 0.000105075 1e-05 0.00246533 9.90236e-05 1e-05 0.00257434 9.31506e-05 1e-05 0.00268334
8.75326e-05 1e-05 0.00279319 8.22193e-05 1e-05 0.00290304 7.69149e-05 1e-05 0.00301289 7.17377e-05
1e-05 0.00312276 6.67213e-05 1e-05 0.00323259 6.18672e-05 1e-05 0.00334329 5.7257e-05 1e-05
0.003454 5.26867e-05 1e-05 0.00356471 4.82573e-05 1e-05 0.00367542 4.39673e-05 1e-05 0.00378611
3.98171e-05 1e-05 0.00389767 3.58331e-05 1e-05 0.00400924 3.19201e-05 1e-05 0.00412081 2.81288e-05
1e-05 0.00423239 2.44578e-05 1e-05 0.00434393 2.09072e-05 1e-05 0.00445636 1.74733e-05 1e-05
0.0045688 1.41228e-05 1e-05 0.00468123 1.08765e-05 1e-05 0.00479368 7.73322e-06 1e-05 0.00490609
4.69273e-06 1e-05 0.00494204 3.75419e-06 1e-05 0.00497799 2.82333e-06 1e-05 0.00501394 1.90137e-06
1e-05 0.0050499 9.88274e-07 1e-05 0.00508919 0 1e-05 0.00516587 -1.90825e-06 1e-05
0.00524256 -3.77676e-06 1e-05 0.00531925 -5.6058e-06 1e-05 0.00539594 -7.39565e-06 1e-05 0.00547262
-9.14635e-06 1e-05 0.00558681 -1.16856e-05 1e-05 0.005701 -1.41634e-05 1e-05 0.00581519 -1.65691e-05
1e-05 0.00592938 -1.89032e-05 1e-05 0.00604356 -2.11662e-05 1e-05 0.00615863 -2.33567e-05 1e-05
0.00627371 -2.55104e-05 1e-05 0.00638878 -2.76051e-05 1e-05 0.00650386 -2.96415e-05 1e-05 0.00661893
-3.162e-05 1e-05 0.0067349 -3.35315e-05 1e-05 0.00685087 -3.54245e-05 1e-05 0.00696684 -3.72706e-05
1e-05 0.00708281 -3.90703e-05 1e-05 0.00719878 -4.08239e-05 1e-05 0.00731565 -4.25179e-05 1e-05
0.00743252 -4.42078e-05 1e-05 0.00754939 -4.58618e-05 1e-05 0.00766627 -4.74803e-05 1e-05 0.00778313
-4.90634e-05 1e-05 0.00790091 -5.05953e-05 1e-05 0.00801869 -5.21349e-05 1e-05 0.00813647 -5.36487e-05
1e-05 0.00825425 -5.51368e-05 1e-05 0.00837203 -5.65995e-05 1e-05 0.00849073 -5.80197e-05 1e-05
0.00860942 -5.94575e-05 1e-05 0.00872812 -6.08788e-05 1e-05 0.00884682 -6.22835e-05 1e-05 0.00896551
-6.36719e-05 1e-05 0.00908513 -6.50264e-05 1e-05 0.00920475 -6.64072e-05 1e-05 0.00932437 -6.77799e-05
1e-05 0.00944398 -6.91446e-05 1e-05 0.0095636 -7.05012e-05 1e-05 0.00968415 -7.18327e-05 1e-05
0.0098047 -7.31981e-05 1e-05 0.00992525 -7.45634e-05 1e-05 0.0100458 -7.59284e-05 1e-05 0.0101663
-7.72933e-05 1e-05 0.0102878 -7.86415e-05 1e-05 0.0104093 -8.00304e-05 1e-05 0.0105308 -8.14269e-05
1e-05 0.0106523 -8.28306e-05 1e-05 0.0107738 -8.42401e-05 1e-05 0.0108962 -8.56428e-05 1e-05
0.0110186 -8.70902e-05 1e-05 0.0111411 -8.85549e-05 1e-05 0.0112635 -9.00339e-05 1e-05 0.0113859
-9.15239e-05 1e-05 0.0115093 -9.30173e-05 1e-05 0.0116327 -9.45594e-05 1e-05 0.0117561 -9.61278e-05
1e-05 0.0118794 -9.77173e-05 1e-05 0.0120028 -9.93229e-05 1e-05 0.0121272 -0.000100942 1e-05
0.0122515 -0.000102613 1e-05 0.0123759 -0.00010432 1e-05 0.0125002 -0.000106054 1e-05 0.0126245
-0.00010781 1e-05 0.0127498 -0.000109588 1e-05 0.0128752 -0.000111423 1e-05 0.0130005 -0.000113301
1e-05 0.0131258 -0.000115213 1e-05 0.0132511 -0.000117152 1e-05 0.0133774 -0.000119123 1e-05
0.0135036 -0.000121155 1e-05 0.0136299 -0.000123239 1e-05 0.0137562 -0.000125362 1e-05 0.0138825
-0.000127517 1e-05 0.0140098 -0.000129713 1e-05 0.014137 -0.000131976 1e-05 0.0142643 -0.000134297
1e-05 0.0143915 -0.000136664 1e-05 0.0145188 -0.000139068 1e-05 0.0146471 -0.000141523 1e-05
0.0147753 -0.000144048 1e-05 0.0149036 -0.00014664 1e-05 0.0150318 -0.000149284 1e-05 0.0151601
-0.00015197 1e-05 0.0152893 -0.000154716 1e-05 0.0154186 -0.000157538 1e-05 0.0155478 -0.000160433
1e-05 0.0156771 -0.000163387 1e-05 0.0158063 -0.000166388 1e-05 0.0159366 -0.00016946 1e-05
0.0160668 -0.000172611 1e-05 0.0161971 -0.000175842 1e-05 0.0163273 -0.000179138 1e-05 0.0164576
-0.000182488 1e-05 0.0165889 -0.000185918 1e-05 0.0167201 -0.000189434 1e-05 0.0168514 -0.000193033
1e-05 0.0169827 -0.000196705 1e-05 0.0171139 -0.000200438 1e-05 0.0172462 -0.000204262 1e-05
0.0173785 -0.000208176 1e-05 0.0175108 -0.00021218 1e-05 0.0176431 -0.000216262 1e-05 0.0177754
-0.000220415 1e-05 0.0179087 -0.000224668 1e-05 0.018042 -0.000229016 1e-05 0.0181753 -0.000233459
1e-05 0.0183086 -0.000237989 1e-05 0.018442 -0.000242597 1e-05 0.0185763 -0.000247316 1e-05
0.0187107 -0.000252135 1e-05 0.018845 -0.000257055 1e-05 0.0189794 -0.000262069 1e-05 0.0191137
-0.000267169 1e-05 0.0192491 -0.000272391 1e-05 0.0193845 -0.00027772 1e-05 0.0195199 -0.000283154
1e-05 0.0196553 -0.000288688 1e-05 0.0197907 -0.000294319 1e-05 0.0199272 -0.000300085 1e-05
0.0200636 -0.000305963 1e-05 0.0202001 -0.00031195 1e-05 0.0203365 -0.000318045 1e-05 0.020473
-0.000324248 1e-05 0.0206105 -0.000330597 1e-05 0.020748 -0.000337065 1e-05 0.0208855 -0.000343648
1e-05 0.021023 -0.000350346 1e-05 0.0211606 -0.000357161 1e-05 0.0212991 -0.000364136 1e-05
0.0214377 -0.000371236 1e-05 0.0215763 -0.000378458 1e-05 0.0217148 -0.000385802 1e-05 0.0218535
-0.000393271 1e-05 0.0219632 -0.000399281 1e-05 0.022073 -0.000405373 1e-05 0.0221828 -0.000411545
1e-05 0.0222926 -0.000417796 1e-05 0.0223877 -0.000423281 1e-05 0.0224205 -0.000425195 1e-05
0.0224533 -0.000427116 1e-05 0.0224861 -0.000429043 1e-05 0.0225189 -0.000430978 1e-05 0.0225517
-0.000432921 1e-05 0.0226925 -0.000441281 1e-05 0.0228332 -0.00044978 1e-05 0.022974 -0.000458416
1e-05 0.0231147 -0.00046719 1e-05 0.0232555 -0.000476106 1e-05 0.0233973 -0.000485224 1e-05
0.0235391 -0.000494493 1e-05 0.023681 -0.000503907 1e-05 0.0238228 -0.000513466 1e-05 0.0239647
-0.000523178 1e-05 0.0241076 -0.000533105 1e-05 0.0242505 -0.000543192 1e-05 0.0243935 -0.000553434
1e-05 0.0245364 -0.00056383 1e-05 0.0246794 -0.000574387 1e-05 0.0248234 -0.000585175 1e-05
0.0249675 -0.000596132 1e-05 0.0251115 -0.000607255 1e-05 0.0252555 -0.00061854 1e-05 0.0253996
-0.000629997 1e-05 0.0255448 -0.0006417 1e-05 0.02569 -0.00065358 1e-05 0.0258351 -0.000665636
1e-05 0.0259802 -0.000677866 1e-05 0.0261255 -0.000690279 1e-05 0.0262718 -0.000702955 1e-05
0.0264181 -0.000715816 1e-05 0.0265643 -0.000728862 1e-05 0.0267106 -0.000742093 1e-05 0.026857
-0.000755522 1e-05 0.0270044 -0.000769229 1e-05 0.0271519 -0.000783132 1e-05 0.0272993 -0.000797229
1e-05 0.0274466 -0.00081152 1e-05 0.0275942 -0.000826025 1e-05 0.0277428 -0.000840827 1e-05
0.0278913 -0.000855833 1e-05 0.0280399 -0.000871044 1e-05 0.0281884 -0.000886461 1e-05 0.0283371
[...]
POINT_DATA 10914
FIELD attributes 4
age 1 10914 float
-0.000326048 -0.000260453 -0.000195045 -0.000129836 -6.48224e-05 0 0.000961211 0.00189489 0.00280739 0.00370346 0.00459982
0.00551197 0.00642451 0.00733735 0.00824139 0.00912762 0.00965222 0.0101699 0.0106814 0.0111871 0.0119523
0.0121897 0.0124256 0.0126601 0.0128931 0.0131246 0.0138545 0.0145683 0.0152704 0.0159607 0.0166416
0.0172964 0.0179342 0.0185561 0.0191699 0.0197845 0.0203765 0.0209534 0.0215157 0.0220724 0.0226313
0.0231705 0.0236964 0.0242113 0.0247227 0.0252348 0.0257297 0.0262127 0.0266894 0.0271633 0.0276357
0.028093 0.0285395 0.0289831 0.0294244 0.0298633 0.0302882 0.0307047 0.0311193 0.031532 0.0319428
0.0323393 0.0327298 0.0331187 0.0335061 0.0338918 0.0342634 0.0346306 0.0349965 0.035361 0.0357243
0.0360734 0.0364195 0.0367646 0.0371085 0.0374512 0.03778 0.0381069 0.0384328 0.0387577 0.0390815
0.0391476 0.0392136 0.0392796 0.0393455 0.03941 0.0396534 0.0398962 0.0401385 0.0403803 0.0406215
0.0409187 0.0412111 0.0415024 0.0417929 0.0420824 0.0423688 0.0426448 0.0429198 0.0431939 0.0434672
0.0437455 0.044006 0.0442656 0.0445246 0.0447836 0.0449803 0.0451509 0.045322 0.0454934 0.0456678
0.0458511 0.0460299 0.0462067 0.0463849 0.0465681 0.0467575 0.0469444 0.047129 0.0473141 0.0475021
0.047694 0.0478843 0.048073 0.0482608 0.0484503 0.0486426 0.0488338 0.049024 0.0492137 0.0494033
0.0495952 0.0497863 0.0499767 0.0501665 0.0503556 0.0505466 0.0507368 0.0509265 0.0511155 0.0513038
0.0514934 0.0516824 0.0518707 0.0520584 0.0522455 0.0524335 0.0526209 0.0528077 0.0529938 0.0531793
0.0532384 0.0532975 0.0533565 0.0534154 0.0534798 0.0536052 0.0537303 0.0538552 0.0539797 0.054104
0.0542885 0.0544724 0.0546557 0.0548384 0.0550204 0.0552032 0.0553853 0.0555669 0.0557478 0.0559281
0.0561093 0.0562897 0.0564695 0.0566488 0.0568275 0.057007 0.0571859 0.0573641 0.0575419 0.057719
0.057897 0.0580744 0.0582512 0.0584274 0.0586031 0.0587798 0.0589557 0.0591311 0.0593061 0.0594805
0.0596558 0.0598304 0.0600046 0.0601783 0.0603515 0.0605256 0.0606991 0.0608721 0.0610447 0.0612167
0.0613898 0.0615622 0.0617342 0.0619057 0.0620768 0.0622489 0.0624204 0.0625914 0.062762 0.0629322
0.0631034 0.063274 0.0634442 0.063614 0.0637835 0.0639539 0.0641238 0.0642933 0.0644623 0.0646311
0.0648008 0.0649701 0.0651389 0.0653074 0.0654755 0.0656447 0.0658134 0.0659817 0.0661497 0.0663173
0.066486 0.0666543 0.0668221 0.0669896 0.0671569 0.0673252 0.0674931 0.0676606 0.0678278 0.0679948
0.0681628 0.0683304 0.0684977 0.0686646 0.0688314 0.0689992 0.0691666 0.0693337 0.0695005 0.0696672
0.0698349 0.0700022 0.0701693 0.070336 0.0705026 0.0706703 0.0708377 0.0710047 0.0711715 0.0713382
0.071506 0.0716734 0.0718406 0.0720075 0.0721744 0.0723423 0.07251 0.0726773 0.0728445 0.0730116
0.0731798 0.0733477 0.0735154 0.0736829 0.0738503 0.0740189 0.0741872 0.0743553 0.0745232 0.0746911
0.0748601 0.0750289 0.0751975 0.075366 0.0755344 0.0757039 0.0758733 0.0760425 0.0762116 0.0763807
0.0765145 0.0766482 0.0767819 0.0769154 0.0770311 0.077071 0.0771109 0.0771507 0.0771906 0.0772305
0.0774015 0.0775723 0.077743 0.0779137 0.0780843 0.0782561 0.0784278 0.0785994 0.0787709 0.0789425
0.0791153 0.0792879 0.0794605 0.079633 0.0798056 0.0799795 0.0801533 0.080327 0.0805006 0.0806744
0.0808495 0.0810245 0.0811994 0.0813743 0.0815494 0.0817259 0.0819023 0.0820786 0.0822549 0.0824315
0.0826094 0.0827873 0.0829652 0.0831431 0.0833213 0.0835009 0.0836804 0.0838601 0.0840398 0.0842198
0.0842531 0.0842864 0.0843198 0.0843531 0.0843856 0.0845339 0.0846822 0.0848306 0.084979 0.0851276
0.085311 0.0854943 0.0856778 0.0858613 0.0860453 0.0862308 0.0864163 0.0866018 0.0867875 0.0869738
0.0871616 0.0873494 0.0875374 0.0877255 0.0879142 0.0881045 0.0882949 0.0884855 0.0886763 0.0888678
0.0890183 0.0891689 0.0893196 0.0894705 0.0896072 0.0896529 0.0896987 0.0897444 0.0897902 0.089836
0.0900321 0.0902283 0.0904248 0.0906216 0.0908192 0.0910185 0.091218 0.0914177 0.0916177 0.0918188
0.0920216 0.0922246 0.0924279 0.0926316 0.0928364 0.093043 0.0932498 0.0934571 0.0936649 0.0938738
0.093907 0.0939401 0.0939732 0.0940064 0.094039 0.094217 0.0943954 0.0945741 0.0947531 0.094933
0.0951482 0.0953638 0.0955798 0.0957964 0.0960145 0.0962345 0.096455 0.096676 0.0968975 0.0971209
0.097323 0.0975255 0.0977285 0.0979321 0.0981175 0.0981451 0.0981726 0.0982001 0.0982277 0.0982552
0.0984862 0.0987179 0.0989503 0.0991833 0.0994185 0.0996557 0.0998936 0.100132 0.100372 0.100613
0.100857 0.101102 0.101348 0.101594 0.101843 0.101886 0.10193 0.101973 0.102016 0.102059
0.102268 0.102478 0.102688 0.102899 0.103112 0.103371 0.103632 0.103893 0.104155 0.104421
0.104689 0.104958 0.105228 0.105499 0.105774 0.10582 0.105865 0.10591 0.105956 0.106
0.106234 0.106468 0.106703 0.106939 0.107178 0.107466 0.107755 0.108046 0.108338 0.108634
0.108919 0.109205 0.109492 0.109781 0.110049 0.110069 0.110089 0.110109 0.110129 0.11015
0.110461 0.110774 0.111089 0.111406 0.111729 0.112054 0.112381 0.112709 0.11304 0.113377
0.113562 0.113748 0.113934 0.114121 0.1143 0.114461 0.114622 0.114783 0.114945 0.115108
0.115464 0.115823 0.116184 0.116548 0.116919 0.117294 0.117671 0.118051 0.118434 0.118826
0.118831 0.118837 0.118842 0.118848 0.118854 0.119243 0.119636 0.120031 0.120429 0.120837
0.121254 0.121674 0.122098 0.122525 0.122963 0.123134 0.123305 0.123478 0.12365 0.123819
0.124097 0.124376 0.124657 0.124939 0.125226 0.125695 0.126169 0.126647 0.127129 0.127625
0.127964 0.128306 0.12865 0.128996 0.129329 0.1295 0.129671 0.129843 0.130015 0.130189
0.130723 0.131263 0.131808 0.13236 0.132929 0.133296 0.133666 0.134038 0.134413 0.134774
0.134994 0.135215 0.135438 0.135661 0.135886 0.136505 0.13713 0.137764 0.138405 0.139068
0.139351 0.139635 0.139921 0.140209 0.14049 0.140891 0.141295 0.141702 0.142112 0.14253
0.143257 0.143994 0.144741 0.145499 0.146286 0.14634 0.146395 0.146449 0.146504 0.146558
0.147302 0.148056 0.148821 0.149596 0.150398 0.150927 0.151461 0.152001 0.152545 0.153078
0.153443 0.153811 0.154181 0.154553 0.154931 0.15589 0.156865 0.157857 0.158866 0.159915
0.159964 0.160014 0.160063 0.160113 0.160163 0.161181 0.162216 0.163269 0.16434 0.165449
0.165945 0.166446 0.16695 0.167459 0.167964 0.168681 0.169406 0.170139 0.17088 0.171634
0.172618 0.173616 0.17463 0.175659 0.176689 0.177053 0.17742 0.177789 0.178159 0.178531
0.180002 0.181504 0.183039 0.184606 0.186204 0.186281 0.186358 0.186436 0.186513 0.186591
0.188163 0.189767 0.191405 0.193076 0.194753 0.195411 0.196075 0.196744 0.197419 0.198109
0.199305 0.200517 0.201745 0.202989 0.204217 0.205691 0.207187 0.208706 0.210246 0.211917
0.21243 0.212946 0.213464 0.213985 0.214499 0.216644 0.218825 0.221042 0.223294 0.225437
0.226166 0.226897 0.227632 0.22837 0.229158 0.230685 0.232223 0.233771 0.235329 0.236822
0.239129 0.241451 0.243788 0.246134 0.24834 0.249094 0.249848 0.250603 0.251358 0.252195
0.253712 0.255228 0.256743 0.258256 0.259715 0.261967 0.264208 0.266436 0.268652 0.270767
0.272936 0.275087 0.277219 0.279333 0.281369 0.282424 0.283474 0.284518 0.285557 0.286814
0.287747 0.288675 0.289599 0.290518 0.291425 0.293389 0.295327 0.297243 0.299136 0.300985
0.302854 0.304693 0.306504 0.308293 0.310054 0.311831 0.313578 0.315296 0.316995 0.318672
0.320363 0.322025 0.323661 0.32528 0.326881 0.328493 0.330077 0.331642 0.333192 0.334722
0.336262 0.337777 0.339277 0.340764 0.342234 0.343709 0.345165 0.346607 0.348038 0.349453
0.35023 0.351003 0.351773 0.352538 0.353432 0.354029 0.354623 0.355215 0.355805 0.356393
0.357789 0.359144 0.360488 0.361822 0.363143 0.364566 0.365878 0.367181 0.368473 0.369754
0.371206 0.37248 0.373745 0.375 0.376246 0.377729 0.37897 0.380202 0.381424 0.382667
0.384184 0.38544 0.386642 0.387835 0.389094 0.390648 0.391921 0.393095 0.394262 0.39554
0.397132 0.398423 0.399574 0.400717 0.402014 0.403647 0.404958 0.406087 0.40721 0.408527
0.410203 0.411535 0.412644 0.413748 0.415087 0.416809 0.418162 0.419275 0.420389 0.42175
0.423519 0.424895 0.426019 0.427144 0.42853 0.430348 0.431747 0.432883 0.434021 0.43543
0.4373 0.438723 0.439872 0.441022 0.442457 0.44438 0.445829 0.44699 0.448154 0.449615
0.451592 0.453067 0.454241 0.455419 0.456906 0.458941 0.460442 0.46163 0.462822 0.464336
0.466428 0.467956 0.469159 0.470365 0.471907 0.474058 0.475614 0.476831 0.478052 0.479621
0.481833 0.483417 0.48465 0.48589 0.487487 0.489761 0.491373 0.492641 0.493917 0.495542
0.497879 0.499518 0.500822 0.502134 0.503788 0.506188 0.507856 0.509196 0.510544 0.512227
0.514692 0.516389 0.517766 0.519151 0.520862 0.523392 0.525118 0.526532 0.527954 0.529695
0.53229 0.534045 0.535497 0.536956 0.538726 0.541386 0.543171 0.54466 0.546157 0.547956
0.550682 0.552495 0.554023 0.555558 0.557385 0.560177 0.562019 0.563585 0.565157 0.567013
0.56987 0.571741 0.573345 0.574956 0.57684 0.579761 0.581661 0.583303 0.584951 0.586864
0.589849 0.591778 0.593457 0.595142 0.597083 0.600132 0.602089 0.603805 0.605527 0.607496
0.610607 0.612592 0.614344 0.616104 0.6181 0.621273 0.623285 0.625074 0.626869 0.628892
0.632125 0.634164 0.635989 0.63782 0.63987 0.643161 0.645228 0.647088 0.648953 0.651029
0.654378 0.656471 0.658365 0.660265 0.662367 0.665772 0.667891 0.669819 0.671751 0.673879
0.677338 0.679483 0.681443 0.683409 0.685561 0.689074 0.691243 0.693236 0.695232 0.69741
0.700973 0.703167 0.705191 0.707218 0.70942 0.713032 0.715251 0.717305 0.719362 0.721588
0.725247 0.72749 0.729573 0.731659 0.733908 0.737614 0.73988 0.741991 0.744106 0.746377
0.750127 0.752416 0.754555 0.756696 0.758991 0.762782 0.765094 0.767259 0.769427 0.771744
0.775575 0.777909 0.7801 0.782293 0.784631 0.788501 0.790857 0.793072 0.795289 0.797649
0.801555 0.803932 0.806171 0.808411 0.810791 0.814732 0.81713 0.819391 0.821653 0.824054
0.828027 0.830445 0.832728 0.835011 0.837432 0.841436 0.843874 0.846177 0.848481 0.850922
0.854955 0.857413 0.859736 0.862059 0.864519 0.86858 0.871057 0.873399 0.875741 0.87822
0.882307 0.884803 0.887164 0.889524 0.892021 0.896134 0.898649 0.901026 0.903404 0.905919
0.910056 0.912589 0.914983 0.917377 0.91991 0.924069 0.92662 0.92903 0.93144 0.933991
0.93817 0.940738 0.943163 0.945587 0.948155 0.952353 0.954939 0.957377 0.959814 0.962398
0.966612 0.969215 0.971665 0.974114 0.976714 0.980942 0.98356 0.986021 0.988481 0.991095
0.995333 0.997966 1.00044 1.0029 1.00553 1.00978 1.01242 1.0149 1.01737 1.02001
1.02425 1.02691 1.02939 1.03187 1.03452 1.03875 1.04142 1.0439 1.04637 1.04903
1.05324 1.05592 1.05839 1.06084 1.06351 1.06769 1.07037 1.07282 1.07525 1.07791
1.08204 1.08471 1.08713 1.08953 1.09218 1.09621 1.09888 1.10125 1.1036 1.10622
1.1101 1.11273 1.11501 1.11724 1.1198 1.12349 1.12613 1.12835 1.13051 1.13301
1.13617 1.13863 1.14086 1.14327 1.14612 1.15071 1.15372 1.15674 1.15994 1.16335
1.16947 1.1732 1.17711 1.18125 1.18564 1.1937 1.19862 1.20381 1.2093 1.21512
1.22596 1.23264 1.2397 1.2472 1.2552 1.27024 1.2796 1.2896 1.30034 1.31193
1.33407 1.34821 1.36364 1.38065 1.39958 1.43714 1.46275 1.49255 1.52818 1.5725
1.62268 1.65864 1.70287 1.76033 1.95254 -0.000101017 -8.08229e-05 -6.06238e-05 -4.04203e-05 -2.02124e-05
0 0.000299717 0.000600378 0.000902252 0.00120559 0.00151169 0.00182659 0.00214362 0.00246298 0.00278436
0.00310922 0.00342168 0.00373609 0.00405206 0.00436918 0.00468814 0.00482474 0.00496161 0.0050986 0.00523572
0.00537442 0.00554532 0.00571646 0.00588783 0.00605943 0.00623119 0.00652892 0.00682701 0.00712545 0.0074242
0.00772253 0.00800883 0.00829519 0.00858159 0.00886779 0.00915318 0.00942692 0.00970053 0.00997389 0.0102468
0.0105188 0.0107796 0.0110402 0.0113003 0.0115599 0.0118187 0.0118827 0.0119468 0.0120108 0.0120747
0.012142 0.0123248 0.0125075 0.0126898 0.0128719 0.0130537 0.0132894 0.0135246 0.0137594 0.0139938
0.0142275 0.0144514 0.0146749 0.014898 0.0151206 0.0153426 0.0155553 0.0157677 0.0159796 0.0161911
0.0164021 0.0166043 0.016806 0.0170075 0.0172085 0.0174091 0.0176013 0.0177931 0.0179847 0.0181758
0.0183666 0.0185494 0.018732 0.0189142 0.0190961 0.0192777 0.0194518 0.0196256 0.0197991 0.0199724
0.0201454 0.0203113 0.020477 0.0206425 0.0208078 0.0209729 0.0211312 0.0212895 0.0214476 0.0216057
0.0217636 0.021869 0.0219744 0.0220797 0.022185 0.0222903 0.0223463 0.0224023 0.0224583 0.0225143
0.0225712 0.0226211 0.0226709 0.0227208 0.0227707 0.0228205 0.0229274 0.0230342 0.0231411 0.0232479
0.0233547 0.0234623 0.02357 0.0236776 0.0237852 0.0238928 0.0240012 0.0241096 0.024218 0.0243264
0.0244348 0.024544 0.0246532 0.0247624 0.0248716 0.0249807 0.0250908 0.0252008 0.0253108 0.0254208
0.0255308 0.0256417 0.0257526 0.0258634 0.0259742 0.0260851 0.0261968 0.0263086 0.0264203 0.0265319
0.0266437 0.0267564 0.026869 0.0269816 0.0270941 0.0272068 0.0273203 0.0274339 0.0275473 0.0276608
0.0277744 0.0278888 0.0280032 0.0281176 0.028232 0.0283464 0.0284618 0.0285771 0.0286924 0.0288077
0.028923 0.0290393 0.0291555 0.0292717 0.0293879 0.029504 0.0296212 0.0297382 0.0298553 0.0299724
0.0300894 0.0302074 0.0303253 0.0304433 0.0305612 0.0306791 0.0307979 0.0309167 0.0310355 0.0311543
0.031273 0.0313306 0.0313881 0.0314456 0.0315032 0.0315604 0.0316226 0.0316847 0.0317468 0.0318089
0.031871 0.0319915 0.032112 0.0322324 0.0323529 0.0324733 0.0325946 0.0327159 0.0328371 0.0329584
0.0330796 0.0332018 0.0333239 0.0334459 0.033568 0.03369 0.033813 0.0339359 0.0340588 0.0341816
0.0343045 0.0344282 0.0345519 0.0346756 0.0347993 0.0349229 0.0350475 0.035172 0.0352965 0.0354209
0.0355453 0.0356707 0.035796 0.0359213 0.0360465 0.0361718 0.0362979 0.036424 0.0365501 0.0366762
0.0368022 0.0369291 0.0370561 0.037183 0.0373098 0.0374366 0.0375644 0.0376921 0.0378198 0.0379475
0.0380751 0.0382037 0.0383323 0.0384608 0.0385893 0.0387178 0.0388472 0.0389767 0.039106 0.0392354
0.0393647 0.039495 0.0396252 0.0397555 0.0398857 0.0400159 0.0401228 0.0402298 0.0403367 0.0404436
0.0405435 0.0405691 0.0405947 0.0406203 0.0406459 0.0406715 0.0408035 0.0409356 0.0410676 0.0411996
0.0413317 0.0414647 0.0415977 0.0417307 0.0418637 0.0419967 0.0421307 0.0422647 0.0423987 0.0425326
0.0426667 0.0428017 0.0429367 0.0430717 0.0432067 0.0433417 0.0434778 0.0436139 0.04375 0.043886
0.0440222 0.0441593 0.0442965 0.0444337 0.0445708 0.0447081 0.0448464 0.0449847 0.045123 0.0452614
0.0453998 0.0455393 0.0456788 0.0458183 0.0459579 0.0460975 0.0462334 0.0463692 0.0465051 0.046641
0.0467641 0.0467716 0.0467791 0.0467866 0.0467941 0.0468016 0.0469436 0.0470856 0.0472278 0.0473699
0.0475122 0.0476557 0.0477991 0.0479426 0.0480862 0.04823 0.0483749 0.0485198 0.0486648 0.0488099
0.0489552 0.0491016 0.0492481 0.0493946 0.0495413 0.0496881 0.0498362 0.0499843 0.0501325 0.0502808
0.0504293 0.0505791 0.0507289 0.0508788 0.0510289 0.0511792 0.0511956 0.051212 0.0512284 0.0512449
0.0512611 0.0513963 0.0515316 0.051667 0.0518025 0.0519383 0.0520918 0.0522453 0.0523991 0.0525529
0.0527072 0.0528627 0.0530183 0.0531741 0.0533301 0.0534865 0.0536441 0.0538019 0.0539599 0.0541181
0.0542768 0.0543915 0.0545063 0.0546213 0.0547363 0.0548435 0.0548905 0.0549376 0.0549847 0.0550318
0.0550789 0.0552413 0.0554039 0.0555667 0.0557297 0.0558933 0.0560583 0.0562235 0.056389 0.0565547
0.0567211 0.0568888 0.0570569 0.0572252 0.0573938 0.057563 0.0576287 0.0576944 0.0577602 0.057826
0.0578894 0.0579954 0.0581014 0.0582076 0.0583139 0.0584205 0.0585944 0.0587685 0.058943 0.0591179
0.0592936 0.0594708 0.0596484 0.0598264 0.0600047 0.060184 0.0602841 0.0603844 0.0604849 0.0605854
0.0606811 0.0607634 0.0608458 0.0609282 0.0610107 0.0610935 0.0612782 0.0614632 0.0616487 0.0618346
0.0620217 0.0622105 0.0623996 0.0625893 0.0627794 0.0629707 0.0630698 0.063169 0.0632684 0.0633679
0.0634632 0.0635589 0.0636547 0.0637506 0.0638466 0.063943 0.0641408 0.064339 0.0645378 0.0647371
0.064938 0.0651407 0.065344 0.0655478 0.0657523 0.0659584 0.0660231 0.0660879 0.0661528 0.0662177
0.0662811 0.0664255 0.0665703 0.0667153 0.0668607 0.0670069 0.0672206 0.0674349 0.0676499 0.0678656
0.0680832 0.0683029 0.0685233 0.0687446 0.0689666 0.0691783 0.0691808 0.0691833 0.0691858 0.0691882
0.0691907 0.0694169 0.0696438 0.0698716 0.0701003 0.0703311 0.0705642 0.070798 0.0710327 0.0712684
0.0715065 0.0716452 0.0717842 0.0719235 0.0720632 0.0721978 0.0723021 0.0724066 0.0725112 0.0726161
0.0727214 0.0729696 0.0732188 0.0734691 0.0737204 0.0739745 0.0742312 0.0744888 0.0747477 0.0750077
0.0752707 0.0752938 0.075317 0.0753401 0.0753633 0.0753863 0.0756293 0.0758733 0.0761184 0.0763645
0.0766132 0.0768883 0.0771646 0.0774421 0.0777211 0.0780034 0.0781621 0.0783212 0.0784808 0.0786409
0.0787965 0.0789261 0.0790561 0.0791863 0.0793169 0.0794481 0.0797441 0.0800415 0.0803405 0.080641
0.0809453 0.0812528 0.0815619 0.0818726 0.0821851 0.082489 0.0824915 0.0824941 0.0824966 0.0824991
0.0825016 0.0828213 0.0831428 0.0834661 0.0837911 0.0841202 0.0844529 0.0847873 0.0851236 0.0854619
0.0858045 0.085951 0.0860979 0.0862451 0.0863928 0.0865382 0.0867415 0.0869455 0.0871503 0.0873557
0.0875625 0.0879235 0.0882865 0.0886515 0.0890189 0.0893909 0.0897187 0.0900482 0.0903794 0.0907125
0.0910379 0.0910902 0.0911425 0.0911949 0.0912473 0.0912998 0.0916923 0.0920872 0.0924846 0.0928846
0.0932891 0.0936985 0.0941105 0.094525 0.0949422 0.0953642 0.0955128 0.0956618 0.0958111 0.0959608
0.0961097 0.096392 0.0966755 0.0969602 0.0972461 0.0975338 0.0979793 0.0984276 0.0988789 0.0993331
0.0997916 0.100212 0.100636 0.101062 0.10149 0.101916 0.101962 0.102008 0.102054 0.102099
0.102145 0.102629 0.103116 0.103606 0.104099 0.104596 0.1051 0.105607 0.106118 0.106632
0.107149 0.107292 0.107435 0.107579 0.107722 0.107867 0.108251 0.108638 0.109026 0.109416
0.109807 0.110352 0.1109 0.111451 0.112007 0.112563 0.112913 0.113264 0.113616 0.113969
0.114328 0.114547 0.114765 0.114985 0.115205 0.115424 0.116009 0.116598 0.11719 0.117785
0.11838 0.118981 0.119586 0.120194 0.120805 0.12143 0.121433 0.121435 0.121437 0.12144
0.121442 0.122063 0.122687 0.123313 0.123943 0.124571 0.125211 0.125854 0.1265 0.127148
0.127794 0.128114 0.128434 0.128755 0.129077 0.129409 0.129745 0.130083 0.130421 0.13076
0.131097 0.131768 0.13244 0.133115 0.133793 0.134466 0.135149 0.135834 0.136521 0.13721
0.137893 0.138017 0.138141 0.138264 0.138388 0.138514 0.139084 0.139656 0.140229 0.140803
0.141373 0.142075 0.142779 0.143485 0.144191 0.144892 0.145602 0.146313 0.147024 0.147737
0.148443 0.148592 0.148742 0.148891 0.149041 0.149194 0.149759 0.150324 0.15089 0.151456
0.152018 0.152737 0.153456 0.154176 0.154895 0.155608 0.15633 0.157051 0.157772 0.158492
0.159207 0.159792 0.160377 0.160962 0.161546 0.162194 0.162316 0.162439 0.162562 0.162684
0.162807 0.163529 0.16425 0.164971 0.16569 0.166404 0.167125 0.167844 0.168563 0.169281
0.169993 0.170712 0.171429 0.172145 0.17286 0.17357 0.174286 0.175 0.175714 0.176425
0.177132 0.17749 0.177847 0.178205 0.178561 0.178944 0.179291 0.179638 0.179984 0.18033
0.180675 0.181384 0.182091 0.182797 0.183501 0.184201 0.184906 0.18561 0.186311 0.187011
0.187708 0.188408 0.189108 0.189805 0.190501 0.191193 0.19189 0.192585 0.193278 0.19397
0.194658 0.19535 0.196041 0.19673 0.197418 0.198102 0.19879 0.199477 0.200162 0.200845
0.201526 0.201785 0.202044 0.202303 0.202561 0.202834 0.203254 0.203674 0.204093 0.204511
0.204928 0.205608 0.206287 0.206964 0.207639 0.208312 0.208989 0.209664 0.210338 0.211009
0.211679 0.212352 0.213024 0.213693 0.214362 0.215028 0.215698 0.216366 0.217033 0.217698
0.218361 0.219027 0.219693 0.220356 0.221018 0.221678 0.222342 0.223004 0.223665 0.224324
0.224982 0.225643 0.226303 0.226961 0.227617 0.228272 0.228931 0.229588 0.230244 0.230898
0.231551 0.232208 0.232863 0.233516 0.234169 0.234819 0.235474 0.236127 0.236779 0.237429
0.238078 0.238731 0.239382 0.240032 0.240681 0.241328 0.24198 0.24263 0.243278 0.243926
0.244572 0.244974 0.245376 0.245777 0.246178 0.246617 0.246855 0.247093 0.247332 0.24757
0.247807 0.248456 0.249104 0.24975 0.250395 0.251039 0.251687 0.252334 0.252979 0.253624
0.254267 0.254914 0.25556 0.256205 0.256849 0.257492 0.258138 0.258784 0.259428 0.260072
0.260714 0.261361 0.262006 0.26265 0.263293 0.263935 0.264582 0.265227 0.265871 0.266514