/*--------------------------------*- C++ -*----------------------------------*\
  =========                 |
  \\      /  F ield         | OpenFOAM: The Open Source CFD Toolbox
   \\    /   O peration     | Website:  https://openfoam.org
    \\  /    A nd           | Version:  10
     \\/     M anipulation  |
\*---------------------------------------------------------------------------*/
FoamFile
{
    format      ascii;
    class       volVectorField;
    location    "0.5";
    object      U;
}
// * * * * * * * * * * * * * * * * * * * * * * * * * * * * * * * * * * * * * //

dimensions      [0 1 -1 0 0 0 0];

internalField   nonuniform List<vector> 
100
(
(-1.16161e-14 -1.16161e-14 0)
(-2.36911e-14 -1.37239e-14 0)
(-2.43887e-14 -1.61964e-14 0)
(-2.45341e-14 -1.90393e-14 0)
(-2.38905e-14 -2.2211e-14 0)
(-1.37239e-14 -2.36911e-14 0)
(-2.82714e-14 -2.82714e-14 0)
(-2.97041e-14 -3.37462e-14 0)
(-3.05488e-14 -4.01774e-14 0)
(-3.04459e-14 -4.75248e-14 0)
(-1.61964e-14 -2.43887e-14 0)
(-3.37462e-14 -2.97041e-14 0)
(-3.62946e-14 -3.62946e-14 0)
(-3.83128e-14 -4.43667e-14 0)
(-3.92796e-14 -5.40298e-14 0)
(-1.90393e-14 -2.45341e-14 0)
(-4.01774e-14 -3.05488e-14 0)
(-4.43667e-14 -3.83128e-14 0)
(-4.8284e-14 -4.8284e-14 0)
(-5.12355e-14 -6.08971e-14 0)
(-2.2211e-14 -2.38905e-14 0)
(-4.75248e-14 -3.04459e-14 0)
(-5.40298e-14 -3.92796e-14 0)
(-6.08971e-14 -5.12355e-14 0)
(-6.73538e-14 -6.73538e-14 0)
(-2.55947e-14 -2.2211e-14 0)
(-5.55664e-14 -2.89744e-14 0)
(-6.51563e-14 -3.8498e-14 0)
(-7.63582e-14 -5.21256e-14 0)
(-8.86759e-14 -7.18469e-14 0)
(-2.89744e-14 -1.92928e-14 0)
(-6.38118e-14 -2.57299e-14 0)
(-7.7181e-14 -3.51845e-14 0)
(-9.4246e-14 -4.9485e-14 0)
(-1.15619e-13 -7.17703e-14 0)
(-3.20317e-14 -1.50536e-14 0)
(-7.14581e-14 -2.04625e-14 0)
(-8.89114e-14 -2.87052e-14 0)
(-1.12944e-13 -4.18128e-14 0)
(-1.46614e-13 -6.37168e-14 0)
(-3.43833e-14 -9.60832e-15 0)
(-7.74634e-14 -1.32463e-14 0)
(-9.85313e-14 -1.89453e-14 0)
(-1.29257e-13 -2.83629e-14 0)
(-1.76266e-13 -4.4999e-14 0)
(-3.56697e-14 -3.30647e-15 0)
(-8.07951e-14 -4.59286e-15 0)
(-1.04028e-13 -6.63811e-15 0)
(-1.38998e-13 -1.00896e-14 0)
(-1.95243e-13 -1.63784e-14 0)
(-3.56697e-14 3.30647e-15 0)
(-8.07951e-14 4.59286e-15 0)
(-1.04028e-13 6.63811e-15 0)
(-1.38998e-13 1.00896e-14 0)
(-1.95243e-13 1.63784e-14 0)
(-3.43833e-14 9.60832e-15 0)
(-7.74634e-14 1.32463e-14 0)
(-9.85313e-14 1.89453e-14 0)
(-1.29257e-13 2.83629e-14 0)
(-1.76266e-13 4.4999e-14 0)
(-3.20317e-14 1.50536e-14 0)
(-7.14581e-14 2.04625e-14 0)
(-8.89114e-14 2.87052e-14 0)
(-1.12944e-13 4.18128e-14 0)
(-1.46614e-13 6.37168e-14 0)
(-2.89744e-14 1.92928e-14 0)
(-6.38118e-14 2.57299e-14 0)
(-7.7181e-14 3.51845e-14 0)
(-9.4246e-14 4.9485e-14 0)
(-1.15619e-13 7.17703e-14 0)
(-2.55947e-14 2.2211e-14 0)
(-5.55664e-14 2.89744e-14 0)
(-6.51563e-14 3.8498e-14 0)
(-7.63582e-14 5.21256e-14 0)
(-8.86759e-14 7.18469e-14 0)
(-2.2211e-14 2.38905e-14 0)
(-4.75248e-14 3.04459e-14 0)
(-5.40298e-14 3.92796e-14 0)
(-6.08971e-14 5.12355e-14 0)
(-6.73538e-14 6.73538e-14 0)
(-1.90393e-14 2.45341e-14 0)
(-4.01774e-14 3.05488e-14 0)
(-4.43667e-14 3.83128e-14 0)
(-4.8284e-14 4.8284e-14 0)
(-5.12355e-14 6.08971e-14 0)
(-1.61964e-14 2.43887e-14 0)
(-3.37462e-14 2.97041e-14 0)
(-3.62946e-14 3.62946e-14 0)
(-3.83128e-14 4.43667e-14 0)
(-3.92796e-14 5.40298e-14 0)
(-1.37239e-14 2.36911e-14 0)
(-2.82714e-14 2.82714e-14 0)
(-2.97041e-14 3.37462e-14 0)
(-3.05488e-14 4.01774e-14 0)
(-3.04459e-14 4.75248e-14 0)
(-1.16161e-14 1.16161e-14 0)
(-2.36911e-14 1.37239e-14 0)
(-2.43887e-14 1.61964e-14 0)
(-2.45341e-14 1.90393e-14 0)
(-2.38905e-14 2.2211e-14 0)
)
;

boundaryField
{
    movingWall
    {
        type            fixedValue;
        value           uniform (1 0 0);
    }
    fixedWalls
    {
        type            noSlip;
    }
    frontAndBack
    {
        type            empty;
    }
    procBoundary0to1
    {
        type            processor;
        value           nonuniform List<vector> 
20
(
(-2.2211e-14 -2.55947e-14 0)
(-2.89744e-14 -5.55664e-14 0)
(-3.8498e-14 -6.51563e-14 0)
(-5.21256e-14 -7.63582e-14 0)
(-7.18469e-14 -8.86759e-14 0)
(-1.00391e-13 -1.00391e-13 0)
(-1.40746e-13 -1.07423e-13 0)
(-1.93808e-13 -1.02459e-13 0)
(-2.5234e-13 -7.69913e-14 0)
(-2.94502e-13 -2.90666e-14 0)
(-2.94502e-13 2.90666e-14 0)
(-2.5234e-13 7.69913e-14 0)
(-1.93808e-13 1.02459e-13 0)
(-1.40746e-13 1.07423e-13 0)
(-1.00391e-13 1.00391e-13 0)
(-7.18469e-14 8.86759e-14 0)
(-5.21256e-14 7.63582e-14 0)
(-3.8498e-14 6.51563e-14 0)
(-2.89744e-14 5.55664e-14 0)
(-2.2211e-14 2.55947e-14 0)
)
;
    }
}


// ************************************************************************* //
