# vtk DataFile Version 2.0
tracks
ASCII
DATASET POLYDATA
POINTS 10934 float
-0.0206 0.00100077 1e-05 -0.02058 0.00100072 1e-05 -0.02056 0.00100062 1e-05 -0.02054 0.00100046
1e-05 -0.02052 0.00100026 1e-05 -0.0205 0.001 1e-05 -0.0202034 0.000996197 1e-05
-0.0199071 0.00098489 1e-05 -0.0196111 0.000966198 1e-05 -0.0193156 0.000939962 1e-05 -0.0190172
0.000906931 1e-05 -0.0187132 0.000873115 1e-05 -0.0184093 0.000839444 1e-05 -0.0181054 0.000805918
1e-05 -0.0178013 0.000773772 1e-05 -0.0174976 0.000743959 1e-05 -0.0173143 0.00072728 1e-05
-0.0171309 0.00071144 1e-05 -0.0169475 0.000696308 1e-05 -0.016764 0.00068181 1e-05 -0.0164832
0.000660566 1e-05 -0.0163943 0.000654282 1e-05 -0.0163054 0.000648141 1e-05 -0.0162164 0.000642138
1e-05 -0.0161275 0.000636271 1e-05 -0.0160387 0.000630536 1e-05 -0.0157586 0.000612661 1e-05
-0.0154784 0.000596027 1e-05 -0.0151981 0.000580435 1e-05 -0.0149178 0.000565834 1e-05 -0.0146381
0.000552038 1e-05 -0.0143692 0.000539154 1e-05 -0.0141002 0.000527194 1e-05 -0.0138312 0.00051609
1e-05 -0.0135621 0.000505608 1e-05 -0.0132934 0.000495407 1e-05 -0.0130353 0.000485863 1e-05
-0.0127771 0.000477022 1e-05 -0.0125188 0.000468843 1e-05 -0.0122606 0.000461037 1e-05 -0.0120025
0.000453401 1e-05 -0.0117547 0.000446226 1e-05 -0.0115068 0.000439583 1e-05 -0.0112589 0.000433387
1e-05 -0.011011 0.00042742 1e-05 -0.0107632 0.000421597 1e-05 -0.0105252 0.000416095 1e-05
-0.0102873 0.000411001 1e-05 -0.0100493 0.000406163 1e-05 -0.00981129 0.000401492 1e-05 -0.00957337
0.000396961 1e-05 -0.00934491 0.000392656 1e-05 -0.00911645 0.000388669 1e-05 -0.00888798 0.00038482
1e-05 -0.00865951 0.000381094 1e-05 -0.00843108 0.00037749 1e-05 -0.00821175 0.000374056 1e-05
-0.00799242 0.000370846 1e-05 -0.00777308 0.000367729 1e-05 -0.00755375 0.000364703 1e-05 -0.00733443
0.000361767 1e-05 -0.00712387 0.000358976 1e-05 -0.0069133 0.000356337 1e-05 -0.00670273 0.000353766
1e-05 -0.00649216 0.000351264 1e-05 -0.0062816 0.000348829 1e-05 -0.00607944 0.000346518 1e-05
-0.00587729 0.000344306 1e-05 -0.00567513 0.000342145 1e-05 -0.00547298 0.000340034 1e-05 -0.00527083
0.000337971 1e-05 -0.00507675 0.000336016 1e-05 -0.00488267 0.000334121 1e-05 -0.0046886 0.00033226
1e-05 -0.00449452 0.000330432 1e-05 -0.00430044 0.000328636 1e-05 -0.00411412 0.000326932 1e-05
-0.0039278 0.000325255 1e-05 -0.00374147 0.000323592 1e-05 -0.00355515 0.000321944 1e-05 -0.00336883
0.00032031 1e-05 -0.00333505 0.000320016 1e-05 -0.00330128 0.000319722 1e-05 -0.0032675 0.000319427
1e-05 -0.00323373 0.000319132 1e-05 -0.00320044 0.000318841 1e-05 -0.00305524 0.000317566 1e-05
-0.00291004 0.000316282 1e-05 -0.00276484 0.000314989 1e-05 -0.00261964 0.000313686 1e-05 -0.00247443
0.000312373 1e-05 -0.0023027 0.000310792 1e-05 -0.00213097 0.000309161 1e-05 -0.00195924 0.000307458
1e-05 -0.00178751 0.000305683 1e-05 -0.00161577 0.000303837 1e-05 -0.0014509 0.000301951 1e-05
-0.00128603 0.000299879 1e-05 -0.00112117 0.000297516 1e-05 -0.000956308 0.000294864 1e-05 -0.000791418
0.000291928 1e-05 -0.000633135 0.000288695 1e-05 -0.000474865 0.000284845 1e-05 -0.000316618 0.00028014
1e-05 -0.000158399 0.00027459 1e-05 0 0.000268196 1e-05 0.000105677 0.000263208 1e-05
0.000211297 0.000257111 1e-05 0.000316887 0.000250535 1e-05 0.000422446 0.000243472 1e-05 0.000528387
0.000236121 1e-05 0.000634886 0.000229596 1e-05 0.000741336 0.000222313 1e-05 0.000847761 0.000214677
1e-05 0.000954186 0.000207036 1e-05 0.00106088 0.000199939 1e-05 0.00116821 0.000193646 1e-05
0.00127552 0.000187012 1e-05 0.0013828 0.00018005 1e-05 0.0014901 0.000173234 1e-05 0.00159752
0.000166968 1e-05 0.00170568 0.000161233 1e-05 0.00181383 0.000155334 1e-05 0.00192198 0.000149274
1e-05 0.00203013 0.000143321 1e-05 0.00213833 0.00013776 1e-05 0.00224733 0.000132558 1e-05
0.00235633 0.000127276 1e-05 0.00246532 0.000121924 1e-05 0.00257432 0.000116686 1e-05 0.00268334
0.000111709 1e-05 0.00279319 0.000106986 1e-05 0.00290304 0.000102216 1e-05 0.00301288 9.746e-05
1e-05 0.00312274 9.27977e-05 1e-05 0.00323259 8.82824e-05 1e-05 0.00334329 8.39515e-05 1e-05
0.00345399 7.95892e-05 1e-05 0.0035647 7.52756e-05 1e-05 0.00367541 7.10364e-05 1e-05 0.00378611
6.6878e-05 1e-05 0.00389767 6.28576e-05 1e-05 0.00400924 5.88179e-05 1e-05 0.0041208 5.48377e-05
1e-05 0.00423237 5.09164e-05 1e-05 0.00434393 4.70538e-05 1e-05 0.00445636 4.32771e-05 1e-05
0.00456879 3.95032e-05 1e-05 0.00468123 3.57765e-05 1e-05 0.00479366 3.20964e-05 1e-05 0.00490609
2.8463e-05 1e-05 0.0050194 2.4876e-05 1e-05 0.0051327 2.13042e-05 1e-05 0.00524601 1.77694e-05
1e-05 0.00535932 1.42712e-05 1e-05 0.00547262 1.08096e-05 1e-05 0.00554432 8.64771e-06 1e-05
0.00561601 6.49262e-06 1e-05 0.0056877 4.34868e-06 1e-05 0.0057594 2.21582e-06 1e-05 0.00583427
0 1e-05 0.00587613 -1.23207e-06 1e-05 0.00591799 -2.46049e-06 1e-05 0.00595984 -3.68526e-06
1e-05 0.0060017 -4.9064e-06 1e-05 0.00604356 -6.12388e-06 1e-05 0.00615863 -9.45567e-06 1e-05
0.00627371 -1.27737e-05 1e-05 0.00638878 -1.60718e-05 1e-05 0.00650386 -1.935e-05 1e-05 0.00661893
-2.26084e-05 1e-05 0.0067349 -2.58555e-05 1e-05 0.00685087 -2.91092e-05 1e-05 0.00696684 -3.23496e-05
1e-05 0.00708281 -3.55766e-05 1e-05 0.00719878 -3.87905e-05 1e-05 0.00731565 -4.19909e-05 1e-05
0.00743252 -4.52135e-05 1e-05 0.00754939 -4.84285e-05 1e-05 0.00766626 -5.1636e-05 1e-05 0.00778313
-5.48361e-05 1e-05 0.00790091 -5.80226e-05 1e-05 0.00801869 -6.12436e-05 1e-05 0.00813647 -6.44623e-05
1e-05 0.00825425 -6.76788e-05 1e-05 0.00837203 -7.08932e-05 1e-05 0.00849073 -7.40952e-05 1e-05
0.00860942 -7.73418e-05 1e-05 0.00872812 -8.05912e-05 1e-05 0.00884681 -8.38432e-05 1e-05 0.00896551
-8.70951e-05 1e-05 0.00908513 -9.03398e-05 1e-05 0.00920475 -9.36306e-05 1e-05 0.00932436 -9.69358e-05
1e-05 0.00944398 -0.000100248 1e-05 0.0095636 -0.00010356 1e-05 0.00968415 -0.000106872 1e-05
0.0098047 -0.000110232 1e-05 0.00992524 -0.000113617 1e-05 0.0100458 -0.000117014 1e-05 0.0101663
-0.00012041 1e-05 0.0102878 -0.000123815 1e-05 0.0104093 -0.000127268 1e-05 0.0105308 -0.000130756
1e-05 0.0106523 -0.000134261 1e-05 0.0107738 -0.000137764 1e-05 0.0108962 -0.000141285 1e-05
0.0110186 -0.000144855 1e-05 0.0111411 -0.000148469 1e-05 0.0112635 -0.000152104 1e-05 0.0113859
-0.000155738 1e-05 0.0115093 -0.000159397 1e-05 0.0116327 -0.000163106 1e-05 0.0117561 -0.000166866
1e-05 0.0118794 -0.00017065 1e-05 0.0120028 -0.000174437 1e-05 0.0121272 -0.000178256 1e-05
0.0122515 -0.000182128 1e-05 0.0123759 -0.000186052 1e-05 0.0125002 -0.000190006 1e-05 0.0126245
-0.000193968 1e-05 0.0127498 -0.00019797 1e-05 0.0128752 -0.000202026 1e-05 0.0130005 -0.000206137
1e-05 0.0131258 -0.000210282 1e-05 0.0132511 -0.000214442 1e-05 0.0133774 -0.000218649 1e-05
0.0135036 -0.000222912 1e-05 0.0136299 -0.000227231 1e-05 0.0137562 -0.000231591 1e-05 0.0138825
-0.00023597 1e-05 0.0140098 -0.000240403 1e-05 0.014137 -0.000244896 1e-05 0.0142643 -0.000249446
1e-05 0.0143915 -0.000254039 1e-05 0.0145188 -0.00025866 1e-05 0.0146471 -0.000263343 1e-05
0.0147753 -0.000268086 1e-05 0.0149036 -0.000272887 1e-05 0.0150318 -0.000277734 1e-05 0.0151601
-0.00028262 1e-05 0.0152893 -0.000287573 1e-05 0.0154186 -0.000292591 1e-05 0.0155478 -0.000297665
1e-05 0.0156771 -0.00030279 1e-05 0.0158063 -0.000307962 1e-05 0.0159366 -0.00031321 1e-05
0.0160668 -0.000318524 1e-05 0.0161971 -0.000323894 1e-05 0.0163273 -0.00032932 1e-05 0.0164576
-0.0003348 1e-05 0.0165889 -0.000340364 1e-05 0.0167201 -0.000345996 1e-05 0.0168514 -0.000351687
1e-05 0.0169827 -0.000357436 1e-05 0.0171139 -0.000363245 1e-05 0.0172462 -0.000369148 1e-05
0.0173785 -0.00037512 1e-05 0.0175108 -0.000381154 1e-05 0.0176431 -0.000387251 1e-05 0.0177754
-0.000393411 1e-05 0.0178517 -0.000397001 1e-05 0.0179281 -0.000400613 1e-05 0.0180045 -0.000404247
1e-05 0.0180808 -0.000407903 1e-05 0.0181523 -0.000411345 1e-05 0.0182102 -0.000414151 1e-05
0.0182682 -0.00041697 1e-05 0.0183261 -0.000419801 1e-05 0.018384 -0.000422645 1e-05 0.018442
-0.000425502 1e-05 0.0185763 -0.000432152 1e-05 0.0187107 -0.000438876 1e-05 0.018845 -0.00044567
1e-05 0.0189794 -0.000452534 1e-05 0.0191137 -0.000459471 1e-05 0.0192491 -0.000466525 1e-05
0.0193845 -0.000473661 1e-05 0.0195199 -0.000480872 1e-05 0.0196553 -0.000488156 1e-05 0.0197907
-0.000495517 1e-05 0.0199272 -0.000503 1e-05 0.0200636 -0.000510573 1e-05 0.0202001 -0.000518225
1e-05 0.0203365 -0.000525954 1e-05 0.020473 -0.000533763 1e-05 0.0206105 -0.000541699 1e-05
0.020748 -0.000549729 1e-05 0.0208855 -0.000557847 1e-05 0.021023 -0.000566046 1e-05 0.0211606
-0.000574325 1e-05 0.0212991 -0.00058274 1e-05 0.0214377 -0.000591252 1e-05 0.0215763 -0.000599861
1e-05 0.0217148 -0.000608555 1e-05 0.0218535 -0.00061733 1e-05 0.0219931 -0.00062625 1e-05
0.0221328 -0.000635271 1e-05 0.0222724 -0.000644392 1e-05 0.0224121 -0.000653604 1e-05 0.0225517
-0.000662902 1e-05 0.0226925 -0.000672353 1e-05 0.0228332 -0.000681908 1e-05 0.022974 -0.000691567
1e-05 0.0231147 -0.000701322 1e-05 0.0232555 -0.00071117 1e-05 0.0233973 -0.000721179 1e-05
0.0235391 -0.000731295 1e-05 0.023681 -0.000741516 1e-05 0.0238228 -0.000751839 1e-05 0.0239647
-0.000762262 1e-05 0.0241076 -0.000772857 1e-05 0.0242505 -0.000783561 1e-05 0.0243935 -0.000794372
1e-05 0.0245364 -0.000805288 1e-05 0.0246794 -0.000816314 1e-05 0.0248234 -0.000827521 1e-05
0.0249675 -0.000838841 1e-05 0.0251115 -0.000850269 1e-05 0.0252555 -0.000861806 1e-05 0.0253996
-0.000873459 1e-05 0.0254695 -0.00087916 1e-05 0.0255393 -0.000884887 1e-05 0.0256092 -0.00089064
1e-05 0.025679 -0.00089642 1e-05 0.0257455 -0.000901943 1e-05 0.0258215 -0.000908289 1e-05
0.0258975 -0.000914665 1e-05 0.0259735 -0.000921072 1e-05 0.0260495 -0.00092751 1e-05 0.0261255
-0.000933981 1e-05 0.0262718 -0.000946493 1e-05 0.0264181 -0.000959124 1e-05 0.0265644 -0.000971872
1e-05 0.0267106 -0.000984736 1e-05 0.026857 -0.000997727 1e-05 0.0270044 -0.00101093 1e-05
0.0271519 -0.00102426 1e-05 0.0272993 -0.00103771 1e-05 0.0274467 -0.00105128 1e-05 0.0275942
[...]
POINT_DATA 10934
FIELD attributes 4
age 1 10934 float
-0.000326049 -0.000260453 -0.000195045 -0.000129836 -6.48224e-05 0 0.000961211 0.00189489 0.00280739 0.00370345 0.00459981
0.00551196 0.0064245 0.00733733 0.00824137 0.00912759 0.00965201 0.0101695 0.0106808 0.0111864 0.0119511
0.0121887 0.0124249 0.0126596 0.0128928 0.0131245 0.0138543 0.0145681 0.0152701 0.0159604 0.0166413
0.017296 0.0179338 0.0185556 0.0191693 0.0197839 0.0203758 0.0209526 0.0215149 0.0220715 0.0226303
0.0231694 0.0236952 0.0242101 0.0247214 0.0252334 0.0257282 0.0262111 0.0266878 0.0271615 0.0276338
0.0280909 0.0285374 0.0289809 0.0294221 0.0298608 0.0302856 0.0307019 0.0311165 0.031529 0.0319397
0.0323361 0.0327264 0.0331152 0.0335024 0.033888 0.0342594 0.0346265 0.0349923 0.0353567 0.0357198
0.0360687 0.0364147 0.0367596 0.0371034 0.037446 0.0377746 0.0381014 0.0384271 0.0387519 0.0390756
0.0391341 0.0391926 0.0392511 0.0393095 0.039367 0.0396178 0.039868 0.0401176 0.0403666 0.0406151
0.0409124 0.0412046 0.0414959 0.0417864 0.0420759 0.0423622 0.0426383 0.0429134 0.0431876 0.0434611
0.0437392 0.0439999 0.0442599 0.0445192 0.0447786 0.0449741 0.0451451 0.0453164 0.0454879 0.0456618
0.0458442 0.0460218 0.0461977 0.0463748 0.046556 0.046743 0.046927 0.0471083 0.0472902 0.0474747
0.0476629 0.0478489 0.0480331 0.0482166 0.0484015 0.048589 0.0487751 0.0489598 0.0491438 0.0493282
0.0495148 0.0497003 0.0498849 0.0500688 0.0502524 0.0504379 0.0506224 0.0508062 0.0509895 0.0511721
0.0513562 0.0515397 0.0517225 0.0519047 0.0520864 0.0522693 0.0524515 0.0526333 0.0528144 0.0529951
0.0531767 0.0533579 0.0535385 0.0537186 0.0538981 0.0540115 0.0541246 0.0542376 0.0543504 0.0544679
0.0545335 0.0545991 0.0546645 0.0547299 0.0547953 0.0549747 0.0551536 0.0553321 0.0555101 0.0556876
0.055866 0.0560439 0.0562214 0.0563984 0.0565749 0.0567525 0.0569294 0.057106 0.0572821 0.0574578
0.0576345 0.0578106 0.0579863 0.0581617 0.0583366 0.0585126 0.058688 0.058863 0.0590376 0.0592119
0.0593873 0.059562 0.0597364 0.0599104 0.0600841 0.060259 0.0604332 0.0606071 0.0607806 0.0609538
0.0611282 0.061302 0.0614754 0.0616484 0.0618213 0.0619953 0.0621687 0.0623417 0.0625144 0.062687
0.0628607 0.0630339 0.0632066 0.0633791 0.0635514 0.0637248 0.0638978 0.0640704 0.0642427 0.0644148
0.0645881 0.064761 0.0649335 0.0651057 0.0652778 0.065451 0.0656239 0.0657963 0.0659685 0.0661406
0.0663138 0.0664867 0.0666592 0.0668315 0.0670036 0.067177 0.06735 0.0675227 0.0676951 0.0678674
0.0680409 0.0682141 0.068387 0.0685597 0.0687322 0.068906 0.0690794 0.0692526 0.0694257 0.0695985
0.0697726 0.0699464 0.07012 0.0702934 0.0704667 0.0706411 0.0708154 0.0709895 0.0711634 0.0713371
0.0714373 0.0715375 0.0716376 0.0717376 0.0718312 0.071907 0.0719828 0.0720586 0.0721343 0.0722101
0.0723856 0.0725609 0.0727361 0.0729111 0.0730861 0.0732622 0.0734382 0.073614 0.0737897 0.0739653
0.0741422 0.0743188 0.0744954 0.0746718 0.0748482 0.0750259 0.0752034 0.0753807 0.075558 0.0757353
0.0759139 0.0760923 0.0762705 0.0764487 0.0766269 0.0768065 0.0769859 0.0771652 0.0773444 0.0775237
0.0777044 0.0778849 0.0780653 0.0782457 0.0784261 0.078608 0.0787898 0.0789714 0.079153 0.0793347
0.0795179 0.0797009 0.079884 0.080067 0.0802501 0.0804346 0.0806191 0.0808036 0.0809881 0.0811727
0.0812622 0.0813517 0.0814412 0.0815308 0.0816159 0.0817134 0.0818108 0.0819083 0.0820057 0.0821032
0.0822909 0.0824785 0.0826662 0.0828539 0.0830418 0.0832312 0.0834205 0.0836099 0.0837994 0.0839891
0.0841803 0.0843715 0.0845627 0.084754 0.0849457 0.0851389 0.0853321 0.0855253 0.0857186 0.0859123
0.0861076 0.086303 0.0864984 0.0866939 0.0868898 0.0870873 0.087285 0.0874827 0.0876806 0.0878789
0.0880747 0.0882707 0.0884668 0.0886631 0.0888425 0.0888501 0.0888577 0.0888653 0.0888729 0.0888805
0.089083 0.0892857 0.0894885 0.0896916 0.0898951 0.0901003 0.0903056 0.0905111 0.0907169 0.0909232
0.0911312 0.0913395 0.0915479 0.0917565 0.0919658 0.0921769 0.0923882 0.0925997 0.0928115 0.0930239
0.0932383 0.0934529 0.0936678 0.0938829 0.0940988 0.0943019 0.0945052 0.0947088 0.0949128 0.0951018
0.0951198 0.0951377 0.0951557 0.0951737 0.0951917 0.0954131 0.0956349 0.0958571 0.0960796 0.0963029
0.0965283 0.0967539 0.0969799 0.0972063 0.0974337 0.0976631 0.0978929 0.098123 0.0983536 0.0985852
0.098819 0.0990532 0.0992878 0.0995229 0.0997591 0.0999975 0.100236 0.100476 0.100716 0.100957
0.100957 0.100957 0.100957 0.100957 0.100958 0.101201 0.101445 0.101689 0.101934 0.10218
0.102428 0.102677 0.102927 0.103177 0.103429 0.103683 0.103938 0.104193 0.104449 0.104706
0.104966 0.105227 0.105488 0.10575 0.106014 0.10615 0.106287 0.106424 0.106561 0.106694
0.106826 0.106958 0.10709 0.107222 0.107355 0.107628 0.107901 0.108176 0.108451 0.108728
0.109008 0.109289 0.109571 0.109853 0.110138 0.110425 0.110714 0.111003 0.111294 0.111586
0.111768 0.111951 0.112134 0.112317 0.112493 0.11261 0.112726 0.112843 0.11296 0.113078
0.113382 0.113687 0.113993 0.114301 0.114611 0.114924 0.115239 0.115555 0.115872 0.116191
0.116514 0.116839 0.117165 0.117492 0.117822 0.117958 0.118094 0.11823 0.118367 0.118501
0.118701 0.118902 0.119104 0.119306 0.119509 0.119854 0.1202 0.120549 0.120898 0.121251
0.121608 0.121967 0.122327 0.122689 0.123055 0.123414 0.123775 0.124137 0.124502 0.124847
0.124863 0.124879 0.124895 0.124911 0.124927 0.125311 0.125697 0.126085 0.126476 0.12687
0.127269 0.12767 0.128074 0.128479 0.12889 0.129305 0.129723 0.130143 0.130566 0.130994
0.131129 0.131264 0.131399 0.131535 0.131669 0.131971 0.132274 0.132578 0.132884 0.133193
0.133645 0.134099 0.134557 0.135018 0.135485 0.135958 0.136434 0.136913 0.137395 0.137885
0.138132 0.13838 0.138629 0.138879 0.139123 0.139378 0.139634 0.13989 0.140148 0.140407
0.140927 0.141451 0.141978 0.14251 0.14305 0.143596 0.144146 0.144701 0.145261 0.145829
0.146142 0.146457 0.146773 0.14709 0.147399 0.14767 0.147941 0.148214 0.148488 0.148765
0.149372 0.149984 0.150603 0.151227 0.151863 0.152505 0.153154 0.15381 0.154472 0.155147
0.155241 0.155335 0.155429 0.155524 0.155618 0.156211 0.15681 0.157413 0.158022 0.158641
0.159368 0.160102 0.160844 0.161594 0.162359 0.16274 0.163122 0.163506 0.163893 0.16427
0.16468 0.165092 0.165506 0.165923 0.166344 0.167174 0.168013 0.168863 0.169722 0.170601
0.171173 0.17175 0.172331 0.172917 0.173486 0.173824 0.174163 0.174504 0.174846 0.175191
0.17615 0.177122 0.178107 0.179105 0.180127 0.180777 0.181433 0.182095 0.182762 0.183414
0.183823 0.184235 0.184649 0.185065 0.185485 0.186608 0.187748 0.188905 0.190078 0.191282
0.191867 0.192456 0.193049 0.193646 0.194234 0.1949 0.195572 0.196249 0.196931 0.197621
0.198954 0.200309 0.201686 0.203084 0.204519 0.204849 0.20518 0.205513 0.205847 0.206179
0.207331 0.208498 0.20968 0.210878 0.212095 0.213547 0.215021 0.21652 0.218041 0.219554
0.219721 0.219888 0.220055 0.220223 0.220391 0.222147 0.223934 0.225752 0.227602 0.229483
0.230528 0.231584 0.232651 0.233727 0.234814 0.235733 0.23666 0.237593 0.238534 0.239478
0.241579 0.243718 0.245895 0.248108 0.250335 0.250788 0.251244 0.2517 0.252159 0.252622
0.25448 0.256361 0.258266 0.260195 0.262113 0.264386 0.266693 0.269033 0.2714 0.274005
0.274142 0.27428 0.274418 0.274556 0.274694 0.277306 0.279948 0.282621 0.285324 0.287966
0.290418 0.292892 0.295386 0.297894 0.300836 0.301015 0.301194 0.301373 0.301552 0.30173
0.30453 0.307343 0.310169 0.313004 0.315754 0.318573 0.321398 0.324227 0.327054 0.329799
0.331198 0.332596 0.333992 0.335387 0.336986 0.338325 0.339661 0.340995 0.342326 0.34364
0.346384 0.349113 0.351827 0.354526 0.357159 0.359824 0.36247 0.365094 0.367698 0.370249
0.372821 0.375369 0.377895 0.3804 0.382858 0.384607 0.386344 0.388069 0.389784 0.391905
0.392516 0.393125 0.393733 0.394339 0.394943 0.397313 0.399659 0.401982 0.404283 0.406549
0.408831 0.411079 0.413305 0.415508 0.417687 0.419883 0.422046 0.424179 0.42629 0.428388
0.430503 0.432585 0.434636 0.436669 0.438691 0.440729 0.442736 0.444712 0.446672 0.448624
0.45059 0.452527 0.454438 0.456336 0.458222 0.460123 0.461995 0.463848 0.465687 0.467513
0.469353 0.471165 0.472964 0.474751 0.476523 0.478307 0.480069 0.481818 0.483556 0.485281
0.487013 0.488728 0.490432 0.492125 0.493806 0.49493 0.496049 0.497163 0.498272 0.499553
0.500065 0.500577 0.501087 0.501596 0.502105 0.503767 0.5054 0.507023 0.508636 0.510239
0.511926 0.513523 0.515111 0.516689 0.518258 0.51997 0.521534 0.52309 0.524636 0.526174
0.527914 0.529447 0.530973 0.53249 0.533999 0.535768 0.537274 0.538773 0.540263 0.541749
0.543548 0.545049 0.546523 0.547989 0.54949 0.551322 0.552838 0.554289 0.555732 0.557251
0.559115 0.560648 0.562078 0.563501 0.565037 0.566937 0.568487 0.569898 0.571303 0.572857
0.574793 0.576362 0.577755 0.579143 0.580716 0.582689 0.584277 0.585655 0.587027 0.58862
0.590632 0.59224 0.593603 0.594962 0.596575 0.598627 0.600255 0.601606 0.602953 0.604588
0.606681 0.60833 0.60969 0.611049 0.612705 0.614841 0.616512 0.617883 0.619254 0.620932
0.623112 0.624805 0.626188 0.627572 0.629273 0.631497 0.633213 0.634609 0.636006 0.63773
0.64 0.641739 0.643148 0.644558 0.646306 0.648623 0.650386 0.651808 0.653232 0.655003
0.657368 0.659156 0.660591 0.662029 0.663826 0.666239 0.668051 0.669501 0.670953 0.672774
0.675237 0.677075 0.678538 0.680005 0.681852 0.684365 0.686227 0.687706 0.689187 0.691059
0.693624 0.695512 0.697005 0.698501 0.700399 0.703015 0.704929 0.706437 0.707948 0.709872
0.71254 0.71448 0.716004 0.717531 0.719481 0.722201 0.724167 0.725706 0.727249 0.729225
0.731998 0.733991 0.735549 0.737114 0.739117 0.741943 0.743962 0.745552 0.747147 0.749177
0.752056 0.754103 0.755723 0.75735 0.759406 0.76234 0.764413 0.766065 0.767723 0.769806
0.772794 0.774894 0.776578 0.778268 0.780378 0.783419 0.785547 0.787262 0.788984 0.791121
0.794216 0.796371 0.798118 0.799872 0.802036 0.805185 0.807366 0.809146 0.810931 0.813122
0.816325 0.818534 0.820345 0.822162 0.82438 0.827636 0.829872 0.831715 0.833564 0.835809
0.839118 0.84138 0.843255 0.845136 0.847407 0.850768 0.853057 0.854964 0.856876 0.859174
0.862586 0.864902 0.86684 0.868783 0.871107 0.874571 0.876913 0.878882 0.880855 0.883206
0.886719 0.889087 0.891086 0.89309 0.895466 0.899028 0.901422 0.903451 0.905484 0.907886
0.911494 0.913915 0.915972 0.918034 0.920461 0.924114 0.926559 0.928645 0.930734 0.933186
0.936882 0.939352 0.941464 0.943579 0.946054 0.94979 0.952283 0.95442 0.95656 0.959057
0.962827 0.965344 0.967503 0.969664 0.972182 0.97598 0.978517 0.980696 0.982874 0.985409
0.989227 0.991782 0.993974 0.996164 0.998715 1.00254 1.00511 1.00731 1.0095 1.01206
1.01588 1.01846 1.02065 1.02284 1.0254 1.02918 1.03177 1.03395 1.03611 1.03866
1.04236 1.04492 1.04704 1.04914 1.05165 1.05521 1.0578 1.0599 1.06196 1.06442
1.06752 1.06995 1.07206 1.07431 1.07708 1.08138 1.0843 1.08702 1.08988 1.09306
1.09852 1.10181 1.10517 1.10867 1.11235 1.11911 1.12312 1.12729 1.13164 1.13619
1.14463 1.14966 1.15489 1.16035 1.16607 1.17672 1.18308 1.18973 1.19671 1.20404
1.21776 1.22606 1.2348 1.24404 1.25385 1.27242 1.28386 1.29611 1.3093 1.3236
1.35126 1.36899 1.38866 1.41072 1.43588 1.48527 1.5203 1.56347 1.61971 1.71989
1.77067 1.80676 1.85142 1.90996 2.0983 -0.000101017 -8.08229e-05 -6.06238e-05 -4.04203e-05 -2.02124e-05
0 0.000299717 0.000600378 0.000902252 0.00120559 0.00151169 0.00182658 0.00214361 0.00246297 0.00278435
0.00310921 0.00342167 0.00373607 0.00405204 0.00436916 0.00468811 0.00482441 0.00496098 0.00509767 0.00523449
0.00537286 0.00554406 0.00571549 0.00588716 0.00605906 0.00623111 0.00652883 0.00682691 0.00712533 0.00742407
0.00772238 0.00800867 0.00829501 0.00858139 0.00886757 0.00915294 0.00942665 0.00970024 0.00997357 0.0102464
0.0105184 0.0107792 0.0110398 0.0112998 0.0115594 0.0118181 0.01188 0.0119419 0.0120037 0.0120655
0.0121304 0.0123154 0.0125002 0.0126848 0.012869 0.0130529 0.0132886 0.0135238 0.0137585 0.0139928
0.0142265 0.0144504 0.0146738 0.0148968 0.0151194 0.0153413 0.015554 0.0157662 0.0159781 0.0161895
0.0164005 0.0166025 0.0168042 0.0170056 0.0172066 0.017407 0.0175991 0.0177909 0.0179824 0.0181735
0.0183641 0.0185469 0.0187293 0.0189115 0.0190933 0.0192748 0.0194487 0.0196224 0.0197958 0.019969
0.0201419 0.0203076 0.0204731 0.0206385 0.0208036 0.0209685 0.0211267 0.0212848 0.0214427 0.0216006
0.0217583 0.0218635 0.0219687 0.0220738 0.0221789 0.022284 0.02234 0.0223961 0.0224521 0.0225081
0.0225649 0.0226145 0.0226642 0.0227138 0.0227634 0.022813 0.0229195 0.0230261 0.0231326 0.0232391
0.0233455 0.0234528 0.0235601 0.0236673 0.0237745 0.0238817 0.0239897 0.0240977 0.0242056 0.0243135
0.0244214 0.0245302 0.0246389 0.0247475 0.0248562 0.0249648 0.0250743 0.0251838 0.0252932 0.0254027
0.0255121 0.0256224 0.0257327 0.0258429 0.0259532 0.0260634 0.0261746 0.0262857 0.0263968 0.0265079
0.0266191 0.0267311 0.0268431 0.0269551 0.0270671 0.0271792 0.0272921 0.0274051 0.027518 0.0276309
0.0277438 0.0278577 0.0279716 0.0280854 0.0281993 0.0283132 0.028428 0.0285429 0.0286577 0.0287725
0.0288874 0.0290032 0.0291189 0.0292347 0.0293505 0.0294663 0.0295831 0.0296998 0.0298166 0.0299333
0.0300501 0.0301679 0.0302856 0.0304033 0.030521 0.0306388 0.0306896 0.0307403 0.0307911 0.0308418
0.0308921 0.0309602 0.0310282 0.0310963 0.0311643 0.0312324 0.031352 0.0314717 0.0315914 0.0317111
0.0318309 0.0319516 0.0320722 0.0321929 0.0323137 0.0324344 0.0325561 0.0326778 0.0327994 0.0329212
0.0330429 0.0331656 0.0332883 0.0334109 0.0335336 0.0336564 0.0337801 0.0339038 0.0340274 0.0341511
0.0342749 0.0343996 0.0345243 0.034649 0.0347737 0.0348984 0.0350241 0.0351498 0.0352755 0.0354012
0.0355269 0.0356537 0.0357804 0.0359071 0.0360338 0.0361606 0.0362883 0.0364161 0.0365438 0.0366716
0.0367993 0.0369281 0.0370569 0.0371857 0.0373144 0.0374432 0.0375731 0.0377029 0.0378327 0.0379626
0.0380924 0.0382233 0.0383542 0.0384851 0.038616 0.0387469 0.0387507 0.0387545 0.0387583 0.0387622
0.038766 0.0388941 0.0390222 0.0391504 0.0392786 0.0394068 0.0395399 0.039673 0.0398061 0.0399392
0.0400724 0.0402066 0.0403408 0.0404751 0.0406094 0.0407437 0.0408791 0.0410145 0.0411499 0.0412853
0.0414209 0.0415574 0.041694 0.0418306 0.0419673 0.042104 0.0422418 0.0423796 0.0425175 0.0426554
0.0427933 0.0429324 0.0430714 0.0432106 0.0433497 0.0434889 0.0436293 0.0437696 0.0439101 0.0440505
0.044191 0.0443327 0.0444744 0.0446161 0.0447579 0.0448998 0.0449683 0.0450368 0.0451054 0.045174
0.0452404 0.0453154 0.0453904 0.0454654 0.0455404 0.0456155 0.0457599 0.0459044 0.046049 0.0461936
0.0463383 0.0464842 0.0466302 0.0467763 0.0469224 0.0470687 0.0472161 0.0473636 0.0475112 0.0476589
0.0478067 0.0479557 0.0481048 0.048254 0.0484032 0.0485527 0.0487033 0.048854 0.0490049 0.0491558
0.0493069 0.0494592 0.0496116 0.0497642 0.0499168 0.0500696 0.0501666 0.0502636 0.0503606 0.0504576
0.0505507 0.0506088 0.0506669 0.0507251 0.0507832 0.0508414 0.0509973 0.0511533 0.0513095 0.0514658
0.0516223 0.0517802 0.0519381 0.0520962 0.0522545 0.052413 0.0525728 0.0527327 0.0528928 0.0530531
0.0532136 0.0533755 0.0535375 0.0536998 0.0538621 0.0540248 0.0541888 0.054353 0.0545174 0.0546819
0.0548467 0.0548981 0.0549495 0.055001 0.0550524 0.0551028 0.0552181 0.0553335 0.055449 0.0555645
0.0556803 0.0558489 0.0560177 0.0561867 0.0563559 0.0565255 0.0566966 0.0568679 0.0570394 0.0572111
0.0573832 0.0575568 0.0577307 0.0579048 0.0580791 0.0582539 0.0584302 0.0586067 0.0587835 0.0589606
0.0591381 0.0591442 0.0591502 0.0591563 0.0591623 0.0591683 0.0593414 0.0595147 0.0596883 0.0598622
0.0600365 0.0602185 0.0604008 0.0605833 0.0607662 0.0609496 0.0611347 0.06132 0.0615057 0.0616916
0.0618782 0.0620665 0.0622551 0.062444 0.0626333 0.0628232 0.062863 0.0629028 0.0629427 0.0629825
0.0630219 0.0631742 0.0633266 0.0634793 0.0636322 0.0637854 0.0639806 0.064176 0.0643718 0.064568
0.0647649 0.0649636 0.0651627 0.0653622 0.065562 0.0657627 0.0659653 0.0661682 0.0663716 0.0665754
0.06678 0.066816 0.066852 0.066888 0.0669241 0.0669598 0.0671308 0.0673021 0.0674737 0.0676456
0.0678181 0.0680288 0.06824 0.0684516 0.0686637 0.0688768 0.0690919 0.0693075 0.0695235 0.0697401
0.0699576 0.0701733 0.0703894 0.0706061 0.0708233 0.0710297 0.0710362 0.0710426 0.0710491 0.0710557
0.0710621 0.0712867 0.0715117 0.0717374 0.0719637 0.072191 0.0724205 0.0726506 0.0728813 0.0731126
0.0733451 0.07358 0.0738154 0.0740515 0.0742883 0.0745262 0.0746778 0.0748297 0.0749818 0.0751342
0.0752821 0.0753728 0.0754636 0.0755545 0.0756456 0.0757367 0.0759829 0.0762298 0.0764775 0.0767259
0.0769756 0.0772279 0.077481 0.0777347 0.0779893 0.0782453 0.0785041 0.0787636 0.0790239 0.0792852
0.0795479 0.079593 0.0796381 0.0796832 0.0797284 0.0797732 0.0799943 0.0802161 0.0804384 0.0806614
0.0808854 0.0811579 0.0814312 0.0817055 0.0819807 0.0822576 0.0825375 0.0828184 0.0831001 0.083383
0.0836676 0.0838475 0.0840279 0.0842087 0.0843899 0.0845667 0.0846768 0.0847871 0.0848975 0.085008
0.0851188 0.0854147 0.0857115 0.0860095 0.0863087 0.0866098 0.0869142 0.0872197 0.0875263 0.0878341
0.088144 0.0884574 0.0887719 0.0890878 0.089405 0.0897243 0.0897268 0.0897293 0.0897318 0.0897343
0.0897368 0.0900572 0.0903789 0.0907018 0.0910262 0.0913526 0.0916853 0.0920193 0.0923545 0.0926913
0.0930305 0.0933735 0.093718 0.0940639 0.0944114 0.0947613 0.0948835 0.0950059 0.0951285 0.0952513
0.0953728 0.0956068 0.0958414 0.0960767 0.0963127 0.0965497 0.096915 0.0972818 0.0976503 0.0980204
0.0983933 0.0987705 0.0991493 0.0995298 0.0999122 0.100297 0.100554 0.100812 0.101071 0.10133
0.101585 0.101721 0.101858 0.101994 0.102131 0.102268 0.10267 0.103075 0.103481 0.10389
0.104301 0.104717 0.105136 0.105556 0.105978 0.106403 0.106823 0.107245 0.107669 0.108095
0.108514 0.108527 0.10854 0.108553 0.108565 0.108578 0.109024 0.109471 0.109921 0.110373
0.110828 0.111288 0.111751 0.112216 0.112683 0.113154 0.11363 0.114109 0.11459 0.115074
0.115561 0.115716 0.115873 0.116029 0.116186 0.116342 0.116682 0.117023 0.117366 0.117709
0.118054 0.118564 0.119076 0.119591 0.120108 0.120628 0.121155 0.121684 0.122217 0.122751
0.123289 0.123691 0.124095 0.124501 0.124908 0.125315 0.125459 0.125604 0.125749 0.125894
0.12604 0.126602 0.127167 0.127735 0.128306 0.12888 0.129461 0.130044 0.130631 0.131221
0.131813 0.132365 0.13292 0.133477 0.134036 0.134602 0.13465 0.134698 0.134746 0.134794
0.134842 0.13546 0.136082 0.136706 0.137334 0.137963 0.1386 0.139241 0.139884 0.14053
0.141178 0.141834 0.142493 0.143155 0.143819 0.144486 0.14454 0.144594 0.144648 0.144703
0.144757 0.145378 0.146002 0.146628 0.147256 0.147885 0.148578 0.149273 0.149971 0.150672
0.151373 0.152083 0.152796 0.153511 0.154229 0.154947 0.155163 0.15538 0.155598 0.155815
0.156035 0.156547 0.15706 0.157575 0.15809 0.158605 0.159348 0.160093 0.160841 0.16159
0.162339 0.163097 0.163857 0.16462 0.165384 0.166147 0.166669 0.167192 0.167715 0.16824
0.168786 0.169033 0.169281 0.169528 0.169776 0.170024 0.170809 0.171596 0.172384 0.173174
0.173962 0.174759 0.175557 0.176357 0.177158 0.177957 0.178764 0.179573 0.180383 0.181193
0.182002 0.182304 0.182606 0.182909 0.183211 0.183523 0.184036 0.18455 0.185064 0.185578
0.186092 0.186916 0.187742 0.188568 0.189395 0.190219 0.191051 0.191883 0.192716 0.193548
0.194378 0.195216 0.196054 0.196892 0.197729 0.198564 0.199059 0.199553 0.200048 0.200542
0.201064 0.201406 0.201747 0.202089 0.20243 0.202771 0.203617 0.204463 0.205308 0.206153
0.206995 0.207843 0.208691 0.209539 0.210386 0.21123 0.21208 0.21293 0.213779 0.214627
0.215472 0.216324 0.217174 0.218024 0.218873 0.219719 0.220334 0.22095 0.221564 0.222178
0.222842 0.223066 0.223291 0.223516 0.22374 0.223964 0.224816 0.225667 0.226516 0.227364
0.228209 0.22906 0.22991 0.230758 0.231605 0.232449 0.233299 0.234147 0.234994 0.23584
0.236682 0.237531 0.238377 0.239223 0.240066 0.240907 0.241754 0.242599 0.243442 0.244284
0.245123 0.245967 0.24681 0.247651 0.24849 0.249327 0.249807 0.250286 0.250765 0.251243
0.251754 0.252107 0.25246 0.252813 0.253166 0.253518 0.254358 0.255196 0.256032 0.256867
0.257699 0.258536 0.259371 0.260205 0.261037 0.261867 0.262702 0.263535 0.264366 0.265195
0.266023 0.266855 0.267685 0.268514 0.269341 0.270166 0.270995 0.271823 0.272649 0.273474