# vtk DataFile Version 2.0
tracks
ASCII
DATASET POLYDATA
POINTS 10919 float
-0.0206 0.00100077 1e-05 -0.02058 0.00100072 1e-05 -0.02056 0.00100062 1e-05 -0.02054 0.00100046
1e-05 -0.02052 0.00100026 1e-05 -0.0205 0.001 1e-05 -0.0202034 0.000996197 1e-05
-0.0199071 0.000984889 1e-05 -0.0196111 0.000966198 1e-05 -0.0193156 0.000939961 1e-05 -0.0190172
0.000906929 1e-05 -0.0187132 0.000873111 1e-05 -0.0184093 0.000839439 1e-05 -0.0181054 0.000805912
1e-05 -0.0178013 0.000773764 1e-05 -0.0174976 0.000743949 1e-05 -0.0173143 0.000727272 1e-05
-0.017131 0.000711434 1e-05 -0.0169476 0.000696303 1e-05 -0.0167642 0.000681806 1e-05 -0.0164834
0.000660566 1e-05 -0.0163945 0.000654278 1e-05 -0.0163055 0.000648132 1e-05 -0.0162165 0.000642125
1e-05 -0.0161276 0.000636254 1e-05 -0.0160387 0.000630514 1e-05 -0.0157586 0.000612637 1e-05
-0.0154784 0.000596001 1e-05 -0.0151981 0.000580406 1e-05 -0.0149178 0.000565802 1e-05 -0.0146381
0.000552003 1e-05 -0.0143692 0.000539117 1e-05 -0.0141002 0.000527153 1e-05 -0.0138312 0.000516047
1e-05 -0.0135621 0.000505561 1e-05 -0.0132934 0.000495358 1e-05 -0.0130353 0.00048581 1e-05
-0.0127771 0.000476966 1e-05 -0.0125188 0.000468784 1e-05 -0.0122606 0.000460975 1e-05 -0.0120025
0.000453337 1e-05 -0.0117547 0.000446158 1e-05 -0.0115068 0.000439512 1e-05 -0.0112589 0.000433312
1e-05 -0.011011 0.000427342 1e-05 -0.0107632 0.000421516 1e-05 -0.0105252 0.000416011 1e-05
-0.0102873 0.000410913 1e-05 -0.0100493 0.000406071 1e-05 -0.00981129 0.000401397 1e-05 -0.00957337
0.000396862 1e-05 -0.00934491 0.000392554 1e-05 -0.00911645 0.000388563 1e-05 -0.00888798 0.00038471
1e-05 -0.00865951 0.00038098 1e-05 -0.00843108 0.000377373 1e-05 -0.00821175 0.000373934 1e-05
-0.00799242 0.00037072 1e-05 -0.00777308 0.000367598 1e-05 -0.00755375 0.000364568 1e-05 -0.00733443
0.000361628 1e-05 -0.00712387 0.000358833 1e-05 -0.0069133 0.000356189 1e-05 -0.00670273 0.000353614
1e-05 -0.00649216 0.000351107 1e-05 -0.0062816 0.000348667 1e-05 -0.00607944 0.000346351 1e-05
-0.00587729 0.000344135 1e-05 -0.00567513 0.000341968 1e-05 -0.00547298 0.000339851 1e-05 -0.00527083
0.000337783 1e-05 -0.00507675 0.000335822 1e-05 -0.00488267 0.000333922 1e-05 -0.0046886 0.000332055
1e-05 -0.00449452 0.00033022 1e-05 -0.00430044 0.000328418 1e-05 -0.00411412 0.000326707 1e-05
-0.0039278 0.000325024 1e-05 -0.00374147 0.000323354 1e-05 -0.00355515 0.000321698 1e-05 -0.00336883
0.000320056 1e-05 -0.00334102 0.000319813 1e-05 -0.00331322 0.00031957 1e-05 -0.00328542 0.000319326
1e-05 -0.00325761 0.000319082 1e-05 -0.00323016 0.000318841 1e-05 -0.00307901 0.000317509 1e-05
-0.00292787 0.000316167 1e-05 -0.00277672 0.000314814 1e-05 -0.00262558 0.00031345 1e-05 -0.00247443
0.000312075 1e-05 -0.0023027 0.000310483 1e-05 -0.00213097 0.00030884 1e-05 -0.00195924 0.000307125
1e-05 -0.00178751 0.000305337 1e-05 -0.00161577 0.000303476 1e-05 -0.0014509 0.000301574 1e-05
-0.00128603 0.000299486 1e-05 -0.00112117 0.000297104 1e-05 -0.000956308 0.000294431 1e-05 -0.000791418
0.000291471 1e-05 -0.000633135 0.00028821 1e-05 -0.000474865 0.000284332 1e-05 -0.000316619 0.000279588
1e-05 -0.0001584 0.000273991 1e-05 0 0.000267541 1e-05 0.000105677 0.000262504 1e-05
0.000211295 0.000256336 1e-05 0.000316883 0.000249681 1e-05 0.000422438 0.00024253 1e-05 0.000528387
0.000235096 1e-05 0.000634886 0.000228476 1e-05 0.000741335 0.000221094 1e-05 0.000847758 0.000213338
1e-05 0.000954179 0.00020557 1e-05 0.00106088 0.000198356 1e-05 0.00116821 0.000191941 1e-05
0.00127552 0.000185187 1e-05 0.0013828 0.000178104 1e-05 0.0014901 0.000171164 1e-05 0.00159752
0.000164772 1e-05 0.00170568 0.000158911 1e-05 0.00181383 0.000152888 1e-05 0.00192198 0.000146706
1e-05 0.00203013 0.000140632 1e-05 0.00213833 0.000134949 1e-05 0.00224733 0.000129628 1e-05
0.00235633 0.000124227 1e-05 0.00246532 0.000118767 1e-05 0.00257432 0.000113425 1e-05 0.00268334
0.000108335 1e-05 0.00279319 0.0001035 1e-05 0.00290304 9.86205e-05 1e-05 0.00301288 9.37631e-05
1e-05 0.00312274 8.90019e-05 1e-05 0.00323259 8.43821e-05 1e-05 0.00334329 7.9947e-05 1e-05
0.00345399 7.54816e-05 1e-05 0.0035647 7.10724e-05 1e-05 0.00367541 6.67389e-05 1e-05 0.00378611
6.24812e-05 1e-05 0.00389767 5.83613e-05 1e-05 0.00400924 5.42279e-05 1e-05 0.0041208 5.01546e-05
1e-05 0.00423237 4.61409e-05 1e-05 0.00434393 4.21865e-05 1e-05 0.00445636 3.83117e-05 1e-05
0.00456879 3.44442e-05 1e-05 0.00468123 3.06238e-05 1e-05 0.00479366 2.68499e-05 1e-05 0.00490609
2.31225e-05 1e-05 0.0050194 1.94352e-05 1e-05 0.0051327 1.57663e-05 1e-05 0.00524601 1.21336e-05
1e-05 0.00535932 8.53656e-06 1e-05 0.00547262 4.97532e-06 1e-05 0.00550463 3.98025e-06 1e-05
0.00553664 2.98641e-06 1e-05 0.00556865 1.99467e-06 1e-05 0.00560067 1.00502e-06 1e-05 0.00563324
0 1e-05 0.00571531 -2.5262e-06 1e-05 0.00579737 -5.03896e-06 1e-05 0.00587943 -7.53836e-06
1e-05 0.0059615 -1.00245e-05 1e-05 0.00604356 -1.24973e-05 1e-05 0.00615863 -1.59354e-05 1e-05
0.00627371 -1.93686e-05 1e-05 0.00638878 -2.2784e-05 1e-05 0.00650386 -2.61818e-05 1e-05 0.00661893
-2.95618e-05 1e-05 0.0067349 -3.29285e-05 1e-05 0.00685087 -3.63106e-05 1e-05 0.00696684 -3.96821e-05
1e-05 0.00708281 -4.30429e-05 1e-05 0.00719878 -4.63932e-05 1e-05 0.00731565 -4.97291e-05 1e-05
0.00743252 -5.3096e-05 1e-05 0.00754939 -5.64585e-05 1e-05 0.00766626 -5.98167e-05 1e-05 0.00778313
-6.31705e-05 1e-05 0.00790091 -6.65107e-05 1e-05 0.00801869 -6.98944e-05 1e-05 0.00813647 -7.32794e-05
1e-05 0.00825425 -7.66658e-05 1e-05 0.00837203 -8.00536e-05 1e-05 0.00849073 -8.34297e-05 1e-05
0.00860942 -8.68558e-05 1e-05 0.00872812 -9.02923e-05 1e-05 0.00884681 -9.37354e-05 1e-05 0.00896551
-9.71782e-05 1e-05 0.00908513 -0.000100619 1e-05 0.00920475 -0.000104111 1e-05 0.00932436 -0.000107626
1e-05 0.00944398 -0.000111153 1e-05 0.0095636 -0.000114678 1e-05 0.00968415 -0.000118212 1e-05
0.0098047 -0.000121796 1e-05 0.00992524 -0.000125416 1e-05 0.0100458 -0.000129052 1e-05 0.0101663
-0.000132687 1e-05 0.0102878 -0.000136338 1e-05 0.0104093 -0.000140042 1e-05 0.0105308 -0.000143791
1e-05 0.0106523 -0.000147561 1e-05 0.0107738 -0.00015133 1e-05 0.0108962 -0.000155124 1e-05
0.0110186 -0.000158972 1e-05 0.0111411 -0.000162872 1e-05 0.0112635 -0.000166798 1e-05 0.0113859
-0.000170725 1e-05 0.0115093 -0.000174685 1e-05 0.0116327 -0.000178701 1e-05 0.0117561 -0.000182771
1e-05 0.0118794 -0.000186872 1e-05 0.0120028 -0.000190982 1e-05 0.0121272 -0.000195131 1e-05
0.0122515 -0.000199338 1e-05 0.0123759 -0.000203602 1e-05 0.0125002 -0.000207901 1e-05 0.0126245
-0.000212216 1e-05 0.0127498 -0.000216578 1e-05 0.0128752 -0.000220999 1e-05 0.0130005 -0.00022548
1e-05 0.0131258 -0.000230001 1e-05 0.0132511 -0.000234544 1e-05 0.0133774 -0.000239141 1e-05
0.0135036 -0.0002438 1e-05 0.0136299 -0.000248519 1e-05 0.0137562 -0.000253284 1e-05 0.0138825
-0.000258076 1e-05 0.0140098 -0.000262932 1e-05 0.014137 -0.000267851 1e-05 0.0142643 -0.000272829
1e-05 0.0143915 -0.000277856 1e-05 0.0145188 -0.000282922 1e-05 0.0146471 -0.000288058 1e-05
0.0147753 -0.00029326 1e-05 0.0149036 -0.00029852 1e-05 0.0150318 -0.000303833 1e-05 0.0151601
-0.000309195 1e-05 0.0152893 -0.000314635 1e-05 0.0154186 -0.000320143 1e-05 0.0155478 -0.000325709
1e-05 0.0156771 -0.000331331 1e-05 0.0158063 -0.000337011 1e-05 0.0159366 -0.000342777 1e-05
0.0160668 -0.000348611 1e-05 0.0161971 -0.000354507 1e-05 0.0163273 -0.000360462 1e-05 0.0164576
-0.000366478 1e-05 0.0165889 -0.000372593 1e-05 0.0167201 -0.000378776 1e-05 0.0168514 -0.000385024
1e-05 0.0169827 -0.000391335 1e-05 0.0171139 -0.000397712 1e-05 0.0171603 -0.000399984 1e-05
0.0172066 -0.000402264 1e-05 0.0172529 -0.000404553 1e-05 0.0172993 -0.000406851 1e-05 0.0173438
-0.000409066 1e-05 0.0174301 -0.000413377 1e-05 0.0175164 -0.000417717 1e-05 0.0176027 -0.000422085
1e-05 0.0176891 -0.000426482 1e-05 0.0177754 -0.000430908 1e-05 0.0179087 -0.000437786 1e-05
0.018042 -0.000444738 1e-05 0.0181753 -0.000451763 1e-05 0.0183086 -0.000458858 1e-05 0.018442
-0.000466027 1e-05 0.0185763 -0.000473315 1e-05 0.0187107 -0.000480688 1e-05 0.018845 -0.000488136
1e-05 0.0189794 -0.000495659 1e-05 0.0191137 -0.00050326 1e-05 0.0192491 -0.000510983 1e-05
0.0193845 -0.000518799 1e-05 0.0195199 -0.000526695 1e-05 0.0196553 -0.000534669 1e-05 0.0197907
-0.000542722 1e-05 0.0199272 -0.000550904 1e-05 0.0200636 -0.000559182 1e-05 0.0202001 -0.000567549
1e-05 0.0203365 -0.000575999 1e-05 0.020473 -0.000584527 1e-05 0.0206105 -0.000593193 1e-05
0.020748 -0.000601958 1e-05 0.0208855 -0.00061082 1e-05 0.021023 -0.000619768 1e-05 0.0211606
-0.000628797 1e-05 0.0212991 -0.000637971 1e-05 0.0214377 -0.000647247 1e-05 0.0215763 -0.000656623
1e-05 0.0217148 -0.000666091 1e-05 0.0218535 -0.000675645 1e-05 0.0219931 -0.000685353 1e-05
0.0221328 -0.000695164 1e-05 0.0222724 -0.000705079 1e-05 0.022412 -0.000715091 1e-05 0.0225517
-0.000725195 1e-05 0.0226925 -0.000735461 1e-05 0.0228332 -0.000745834 1e-05 0.022974 -0.00075631
1e-05 0.0231147 -0.000766887 1e-05 0.0232555 -0.000777565 1e-05 0.0233973 -0.000788415 1e-05
0.0235391 -0.000799375 1e-05 0.023681 -0.000810438 1e-05 0.0238228 -0.000821605 1e-05 0.0239647
-0.000832882 1e-05 0.0241076 -0.000844341 1e-05 0.0242505 -0.00085591 1e-05 0.0243935 -0.000867586
1e-05 0.0245364 -0.00087937 1e-05 0.0246794 -0.000891267 1e-05 0.0246918 -0.000892312 1e-05
0.0247042 -0.000893356 1e-05 0.0247167 -0.000894402 1e-05 0.0247291 -0.000895449 1e-05 0.0247414
-0.000896487 1e-05 0.0248731 -0.000907583 1e-05 0.0250047 -0.000918771 1e-05 0.0251363 -0.000930052
1e-05 0.0252679 -0.000941424 1e-05 0.0253996 -0.000952895 1e-05 0.0255448 -0.000965641 1e-05
0.02569 -0.000978506 1e-05 0.0258351 -0.000991484 1e-05 0.0259803 -0.00100458 1e-05 0.0261255
-0.00101779 1e-05 0.0262718 -0.00103122 1e-05 0.0264181 -0.00104476 1e-05 0.0265644 -0.00105843
1e-05 0.0267106 -0.00107222 1e-05 0.026857 -0.00108613 1e-05 0.0270044 -0.00110025 1e-05
0.0271519 -0.00111451 1e-05 0.0272993 -0.00112889 1e-05 0.0274467 -0.0011434 1e-05 0.0275942
[...]
POINT_DATA 10919
FIELD attributes 4
age 1 10919 float
-0.000326049 -0.000260453 -0.000195045 -0.000129836 -6.48224e-05 0 0.000961211 0.00189489 0.00280739 0.00370345 0.00459981
0.00551196 0.00642449 0.00733733 0.00824136 0.00912757 0.00965188 0.0101692 0.0106805 0.011186 0.0119504
0.0121882 0.0124244 0.0126592 0.0128926 0.0131244 0.0138542 0.014568 0.01527 0.0159602 0.0166411
0.0172958 0.0179336 0.0185553 0.019169 0.0197835 0.0203754 0.0209522 0.0215144 0.022071 0.0226297
0.0231688 0.0236946 0.0242094 0.0247207 0.0252326 0.0257273 0.0262102 0.0266868 0.0271605 0.0276327
0.0280898 0.0285361 0.0289796 0.0294207 0.0298594 0.030284 0.0307003 0.0311148 0.0315273 0.0319378
0.0323341 0.0327244 0.0331131 0.0335002 0.0338857 0.034257 0.034624 0.0349896 0.0353539 0.0357169
0.0360657 0.0364117 0.0367564 0.0371001 0.0374425 0.037771 0.0380977 0.0384233 0.0387479 0.0390715
0.0391197 0.0391678 0.0392159 0.0392639 0.0393114 0.0395725 0.0398329 0.0400927 0.0403518 0.0406104
0.0409076 0.0411997 0.0414909 0.0417811 0.0420705 0.0423568 0.0426328 0.0429077 0.0431817 0.0434549
0.0437331 0.0439936 0.0442533 0.0445124 0.0447715 0.0449672 0.045138 0.045309 0.0454804 0.0456541
0.0458365 0.046014 0.0461899 0.0463668 0.046548 0.046735 0.0469191 0.0471005 0.0472825 0.0474671
0.0476553 0.0478415 0.0480258 0.0482094 0.0483944 0.0485821 0.0487683 0.0489533 0.0491375 0.0493221
0.0495088 0.0496944 0.0498792 0.0500633 0.0502471 0.0504327 0.0506174 0.0508014 0.0509848 0.0511676
0.0513519 0.0515355 0.0517185 0.0519009 0.0520827 0.0522657 0.0524481 0.0526299 0.0528112 0.052992
0.0531738 0.053355 0.0535357 0.0537159 0.0538956 0.0539462 0.0539968 0.0540474 0.0540979 0.0541492
0.0542785 0.0544076 0.0545363 0.0546648 0.0547931 0.0549726 0.0551515 0.05533 0.055508 0.0556855
0.055864 0.0560419 0.0562194 0.0563964 0.056573 0.0567506 0.0569275 0.057104 0.0572802 0.0574559
0.0576326 0.0578088 0.0579845 0.0581598 0.0583347 0.0585108 0.0586862 0.0588612 0.0590359 0.0592102
0.0593856 0.0595604 0.0597348 0.0599088 0.0600826 0.0602575 0.0604318 0.0606057 0.0607793 0.0609526
0.061127 0.061301 0.0614744 0.0616475 0.0618205 0.0619946 0.0621682 0.0623413 0.0625141 0.0626868
0.0628607 0.063034 0.063207 0.0633796 0.0635521 0.0637257 0.063899 0.0640718 0.0642443 0.0644166
0.0645902 0.0647634 0.0649361 0.0651086 0.065281 0.0654545 0.0656277 0.0658005 0.0659731 0.0661455
0.0663191 0.0664924 0.0666654 0.0668381 0.0670106 0.0671844 0.0673579 0.0675311 0.0677041 0.0678769
0.0680509 0.0682246 0.0683981 0.0685714 0.0687445 0.0689189 0.069093 0.0692669 0.0694406 0.0696142
0.069789 0.0699635 0.0701379 0.0703121 0.0704862 0.0705476 0.0706089 0.0706703 0.0707316 0.0707905
0.0709047 0.0710188 0.0711329 0.0712469 0.0713608 0.0715366 0.0717123 0.0718878 0.0720632 0.0722385
0.072415 0.0725913 0.0727675 0.0729436 0.0731196 0.0732969 0.0734739 0.0736509 0.0738277 0.0740045
0.0741826 0.0743606 0.0745383 0.074716 0.0748938 0.0750729 0.0752518 0.0754305 0.0756091 0.0757879
0.075968 0.076148 0.0763278 0.0765075 0.0766874 0.0768686 0.0770498 0.0772307 0.0774117 0.0775928
0.0777753 0.0779576 0.07814 0.0783222 0.0785046 0.0786885 0.0788722 0.079056 0.0792397 0.0794236
0.0796089 0.0797941 0.0799794 0.0801647 0.0803501 0.0803663 0.0803824 0.0803985 0.0804147 0.0804307
0.0806014 0.0807722 0.080943 0.0811139 0.0812848 0.0814734 0.0816619 0.0818505 0.0820391 0.0822279
0.0824182 0.0826085 0.0827989 0.0829893 0.08318 0.0833722 0.0835645 0.0837567 0.0839491 0.0841418
0.0843361 0.0845304 0.0847248 0.0849192 0.0851141 0.0853106 0.0855071 0.0857038 0.0859005 0.0860977
0.0862965 0.0864954 0.0866945 0.0868937 0.0870933 0.0872124 0.0873315 0.0874507 0.08757 0.0876834
0.0877671 0.0878508 0.0879345 0.0880183 0.0881021 0.0883061 0.0885102 0.0887145 0.088919 0.0891239
0.0893306 0.0895375 0.0897445 0.0899518 0.0901596 0.0903693 0.0905792 0.0907892 0.0909994 0.0912104
0.0914232 0.0916362 0.0918494 0.0920629 0.0922771 0.0924932 0.0927096 0.0929262 0.0931432 0.0933609
0.0934997 0.0936386 0.0937777 0.0939169 0.0940496 0.0941323 0.094215 0.0942977 0.0943806 0.0944635
0.0946868 0.0949105 0.0951346 0.0953591 0.0955843 0.0958116 0.0960392 0.0962671 0.0964955 0.0967248
0.0969563 0.0971881 0.0974203 0.0976529 0.0978866 0.0981224 0.0983587 0.0985954 0.0988327 0.0990709
0.0992734 0.0994762 0.0996795 0.0998832 0.100075 0.100116 0.100157 0.100198 0.100239 0.10028
0.100525 0.100771 0.101018 0.101265 0.101513 0.101764 0.102015 0.102267 0.102519 0.102773
0.103029 0.103286 0.103543 0.103801 0.104061 0.104323 0.104586 0.104849 0.105113 0.105379
0.105512 0.105645 0.105778 0.105912 0.106041 0.106178 0.106316 0.106454 0.106591 0.10673
0.107005 0.10728 0.107557 0.107834 0.108113 0.108395 0.108677 0.108961 0.109245 0.109531
0.10982 0.11011 0.110401 0.110693 0.110987 0.111217 0.111447 0.111678 0.111909 0.112131
0.112202 0.112272 0.112343 0.112414 0.112485 0.11279 0.113097 0.113404 0.113713 0.114024
0.114338 0.114653 0.11497 0.115287 0.115607 0.115931 0.116256 0.116582 0.116909 0.117239
0.11749 0.117742 0.117995 0.118249 0.118493 0.118579 0.118665 0.118752 0.118838 0.118924
0.119269 0.119615 0.119962 0.120311 0.120663 0.121018 0.121375 0.121734 0.122095 0.122458
0.122826 0.123196 0.123567 0.12394 0.124317 0.124506 0.124696 0.124887 0.125078 0.125265
0.12546 0.125655 0.125851 0.126048 0.126246 0.12664 0.127037 0.127436 0.127837 0.128242
0.128652 0.129064 0.129478 0.129894 0.130315 0.130741 0.131169 0.1316 0.132033 0.132472
0.132495 0.132519 0.132543 0.132567 0.13259 0.133011 0.133433 0.133858 0.134286 0.134718
0.135179 0.135644 0.136111 0.136582 0.137058 0.137539 0.138024 0.138512 0.139004 0.139501
0.139728 0.139955 0.140183 0.140411 0.140635 0.140918 0.141203 0.141488 0.141775 0.142063
0.14259 0.143121 0.143656 0.144194 0.14474 0.145292 0.145848 0.146408 0.146973 0.147546
0.147955 0.148366 0.14878 0.149196 0.149598 0.149777 0.149957 0.150136 0.150317 0.150498
0.151107 0.151722 0.152342 0.152967 0.153602 0.154244 0.154893 0.155548 0.156208 0.156879
0.157207 0.157535 0.157865 0.158197 0.158521 0.158884 0.159249 0.159615 0.159984 0.160355
0.161075 0.161802 0.162536 0.163277 0.164031 0.164795 0.165567 0.166346 0.167134 0.167925
0.167927 0.167929 0.167932 0.167934 0.167936 0.16875 0.169572 0.170402 0.171242 0.172097
0.172964 0.173841 0.174729 0.175625 0.176541 0.17682 0.177101 0.177382 0.177664 0.177943
0.178605 0.179273 0.179946 0.180625 0.181314 0.182309 0.183316 0.184337 0.18537 0.186426
0.186885 0.187346 0.18781 0.188276 0.188735 0.189368 0.190007 0.190649 0.191297 0.191953
0.193108 0.19428 0.195468 0.196672 0.197905 0.198418 0.198934 0.199453 0.199975 0.20049
0.201254 0.202024 0.2028 0.203584 0.204377 0.205734 0.207112 0.208511 0.209931 0.211384
0.211795 0.212208 0.212622 0.213039 0.213452 0.214544 0.215648 0.216764 0.217893 0.219038
0.220646 0.222282 0.223945 0.225633 0.227358 0.227475 0.227593 0.22771 0.227828 0.227946
0.229596 0.23127 0.23297 0.234696 0.236447 0.238004 0.239583 0.241184 0.242805 0.244447
0.244828 0.24521 0.245594 0.245978 0.246364 0.248449 0.25057 0.252725 0.254914 0.257119
0.258401 0.259696 0.261002 0.262319 0.263676 0.264684 0.265699 0.266721 0.267748 0.268774
0.271202 0.273667 0.276168 0.278702 0.281221 0.282306 0.283398 0.284496 0.2856 0.286754
0.288274 0.289804 0.291343 0.292892 0.294425 0.297139 0.29988 0.30265 0.305441 0.308179
0.309635 0.311097 0.312564 0.314035 0.31565 0.316982 0.318316 0.319653 0.320993 0.322317
0.325174 0.328042 0.330918 0.333798 0.336605 0.339468 0.342334 0.345197 0.348055 0.350844
0.351537 0.352228 0.35292 0.35361 0.354348 0.356466 0.358579 0.360684 0.362782 0.364844
0.367618 0.370375 0.373114 0.375837 0.378504 0.381198 0.38387 0.386521 0.389152 0.391735
0.394335 0.396912 0.399468 0.402001 0.404493 0.406068 0.407634 0.40919 0.410738 0.412594
0.413428 0.414258 0.415086 0.415911 0.416732 0.419137 0.421516 0.423873 0.426208 0.42851
0.430828 0.433112 0.435373 0.437612 0.439829 0.442063 0.444263 0.446432 0.448581 0.450718
0.452871 0.454991 0.45708 0.45915 0.461212 0.463289 0.465334 0.467348 0.469346 0.471337
0.473343 0.475317 0.477267 0.479201 0.481126 0.483066 0.484975 0.486866 0.488742 0.490606
0.492484 0.494332 0.496168 0.497991 0.499799 0.50162 0.503417 0.505202 0.506975 0.508734
0.510502 0.512252 0.51399 0.515716 0.51743 0.518638 0.519838 0.521033 0.522223 0.523601
0.524061 0.52452 0.524979 0.525436 0.525893 0.527586 0.52925 0.530904 0.532548 0.534181
0.535898 0.537525 0.539142 0.540749 0.542346 0.544089 0.545681 0.547264 0.548838 0.550402
0.552172 0.553732 0.555284 0.556826 0.55836 0.56016 0.561691 0.563213 0.564727 0.56624
0.568071 0.5696 0.571095 0.572583 0.574112 0.575976 0.57752 0.578991 0.580454 0.582
0.583899 0.58546 0.586908 0.588349 0.589913 0.591848 0.593427 0.594855 0.596276 0.597858
0.599831 0.601429 0.602838 0.60424 0.605842 0.607855 0.609473 0.610864 0.612249 0.613872
0.615925 0.617564 0.618939 0.620308 0.621952 0.624049 0.625708 0.627081 0.628452 0.630119
0.63226 0.633941 0.635325 0.636709 0.638398 0.640585 0.64229 0.643685 0.645081 0.646794
0.649029 0.650757 0.652165 0.653575 0.655312 0.657595 0.659348 0.660769 0.662192 0.663954
0.666288 0.668066 0.669501 0.670938 0.672726 0.675112 0.676915 0.678364 0.679815 0.681629
0.684069 0.685898 0.687361 0.688828 0.690668 0.693162 0.695019 0.696496 0.697978 0.699845
0.702395 0.704279 0.705772 0.707268 0.709164 0.71177 0.713681 0.71519 0.716702 0.718625
0.721289 0.723229 0.724753 0.726281 0.728233 0.730955 0.732923 0.734463 0.736008 0.737988
0.74077 0.742766 0.744334 0.745908 0.747917 0.750759 0.752785 0.754388 0.755998 0.758036
0.760938 0.762994 0.764632 0.766277 0.768344 0.771309 0.773393 0.775067 0.776749 0.778846
0.781872 0.783986 0.785697 0.787414 0.789541 0.792629 0.794774 0.796521 0.798275 0.800431
0.803582 0.805756 0.80754 0.809331 0.811518 0.814731 0.816935 0.818756 0.820584 0.8228
0.826076 0.82831 0.830168 0.832033 0.834278 0.837616 0.83988 0.841775 0.843677 0.845952
0.849351 0.851645 0.853577 0.855515 0.85782 0.86128 0.863604 0.865572 0.867547 0.869881
0.873401 0.875754 0.877758 0.879769 0.882132 0.885711 0.888093 0.890133 0.892179 0.894571
0.898208 0.900618 0.902694 0.904774 0.907195 0.910886 0.913326 0.915435 0.917549 0.919997
0.923743 0.92621 0.928352 0.930499 0.932974 0.936771 0.939265 0.941439 0.943617 0.946119
0.949963 0.952484 0.954687 0.956895 0.959421 0.963309 0.965855 0.968086 0.970319 0.972869
0.976794 0.979364 0.981619 0.983875 0.986446 0.9904 0.992991 0.995265 0.997538 1.00013
1.0041 1.00671 1.009 1.01128 1.01388 1.01786 1.02048 1.02277 1.02506 1.02767
1.03163 1.03426 1.03655 1.03882 1.04143 1.04534 1.04798 1.05024 1.05249 1.05509
1.0589 1.06151 1.0637 1.06587 1.06842 1.07208 1.07471 1.07688 1.07899 1.0815
1.08466 1.08713 1.08931 1.09164 1.09447 1.09894 1.10192 1.10479 1.1078 1.11109
1.11687 1.12032 1.12392 1.1277 1.13167 1.139 1.14338 1.14796 1.15276 1.15781
1.1672 1.17285 1.17877 1.18498 1.19153 1.20377 1.21119 1.219 1.22726 1.23602
1.25254 1.2627 1.27353 1.28514 1.29765 1.32165 1.33688 1.35355 1.37198 1.39258
1.43388 1.46218 1.49559 1.53638 1.58878 1.63983 1.67622 1.72118 1.77998 1.9709
-0.000101017 -8.08229e-05 -6.06238e-05 -4.04203e-05 -2.02124e-05 0 0.000299717 0.000600378 0.000902251 0.00120559
0.00151169 0.00182658 0.00214361 0.00246297 0.00278434 0.0031092 0.00342166 0.00373606 0.00405203 0.00436914
0.00468809 0.00482421 0.00496061 0.00509713 0.00523377 0.00537195 0.00554332 0.00571492 0.00588676 0.00605884
0.00623107 0.00652878 0.00682686 0.00712527 0.007424 0.0077223 0.00800858 0.00829491 0.00858128 0.00886745
0.0091528 0.0094265 0.00970008 0.00997339 0.0102462 0.0105182 0.010779 0.0110395 0.0112995 0.0115591
0.0118178 0.0118784 0.0119389 0.0119994 0.0120599 0.0121233 0.0123097 0.0124958 0.0126817 0.0128673
0.0130525 0.0132881 0.0135233 0.013758 0.0139923 0.0142259 0.0144497 0.0146731 0.0148961 0.0151186
0.0153406 0.0155532 0.0157654 0.0159772 0.0161886 0.0163995 0.0166015 0.0168032 0.0170045 0.0172054
0.0174058 0.0175979 0.0177896 0.017981 0.0181721 0.0183627 0.0185454 0.0187277 0.0189098 0.0190916
0.019273 0.0194469 0.0196205 0.0197939 0.019967 0.0201398 0.0203055 0.020471 0.0206362 0.0208013
0.0209662 0.0211243 0.0212823 0.0214402 0.0215979 0.0217556 0.0218607 0.0219659 0.022071 0.022176
0.0222811 0.0223297 0.0223783 0.0224269 0.0224756 0.0225247 0.0225818 0.0226388 0.0226958 0.0227528
0.0228098 0.0229164 0.0230229 0.0231293 0.0232358 0.0233422 0.0234495 0.0235567 0.0236639 0.023771
0.0238782 0.0239862 0.0240941 0.024202 0.0243099 0.0244178 0.0245265 0.0246351 0.0247438 0.0248524
0.024961 0.0250705 0.02518 0.0252894 0.0253988 0.0255082 0.0256185 0.0257287 0.025839 0.0259492
0.0260594 0.0261706 0.0262817 0.0263928 0.0265038 0.0266149 0.026727 0.026839 0.026951 0.0270629
0.027175 0.0272879 0.0274008 0.0275137 0.0276266 0.0277396 0.0278534 0.0279673 0.0280811 0.028195
0.0283089 0.0284237 0.0285385 0.0286533 0.0287682 0.028883 0.0289988 0.0291146 0.0292304 0.0293462
0.029462 0.0295787 0.0296955 0.0298123 0.029929 0.0300458 0.0301635 0.0302813 0.030399 0.0305168
0.0306346 0.0306508 0.030667 0.0306832 0.0306994 0.0307156 0.0308181 0.0309206 0.0310231 0.0311257
0.0312282 0.0313479 0.0314677 0.0315874 0.0317072 0.0318269 0.0319477 0.0320684 0.0321891 0.0323099
0.0324307 0.0325524 0.0326742 0.0327959 0.0329177 0.0330395 0.0331623 0.0332851 0.0334078 0.0335306
0.0336534 0.0337772 0.033901 0.0340248 0.0341486 0.0342724 0.0343973 0.0345221 0.0346469 0.0347717
0.0348966 0.0350224 0.0351483 0.0352741 0.0354 0.0355259 0.0356528 0.0357797 0.0359066 0.0360335
0.0361604 0.0362884 0.0364163 0.0365443 0.0366722 0.0368002 0.0369292 0.0370582 0.0371873 0.0373163
0.0374454 0.0375755 0.0377056 0.0378357 0.0379658 0.038096 0.0381504 0.0382049 0.0382593 0.0383138
0.0383671 0.0384441 0.0385211 0.0385981 0.0386751 0.0387521 0.0388844 0.0390168 0.0391491 0.0392815
0.039414 0.0395475 0.039681 0.0398145 0.0399481 0.0400817 0.0402164 0.0403511 0.0404859 0.0406207
0.0407555 0.0408914 0.0410274 0.0411633 0.0412994 0.0414354 0.0415726 0.0417098 0.041847 0.0419843
0.0421217 0.0422601 0.0423986 0.0425371 0.0426757 0.0428144 0.0429541 0.0430939 0.0432338 0.0433737
0.0435137 0.0436548 0.043796 0.0439372 0.0440785 0.0442199 0.04431 0.0444001 0.0444902 0.0445804
0.044667 0.0447202 0.0447735 0.0448267 0.04488 0.0449332 0.0450772 0.0452212 0.0453654 0.0455096
0.0456539 0.0457994 0.0459449 0.0460906 0.0462363 0.0463822 0.0465293 0.0466764 0.0468236 0.046971
0.0471184 0.0472671 0.0474159 0.0475647 0.0477137 0.0478628 0.0480132 0.0481636 0.0483142 0.0484649
0.0486157 0.0487678 0.04892 0.0490723 0.0492247 0.0493773 0.0494814 0.0495856 0.0496898 0.049794
0.0498938 0.0499447 0.0499955 0.0500464 0.0500973 0.0501482 0.0503039 0.0504598 0.0506158 0.050772
0.0509284 0.0510861 0.051244 0.051402 0.0515601 0.0517186 0.0518783 0.0520382 0.0521983 0.0523585
0.052519 0.0526808 0.0528428 0.053005 0.0531674 0.0533301 0.0534941 0.0536583 0.0538227 0.0539873
0.0541522 0.054208 0.0542637 0.0543195 0.0543754 0.05443 0.0545411 0.0546522 0.0547634 0.0548747
0.0549861 0.0551548 0.0553237 0.0554929 0.0556622 0.0558319 0.0560031 0.0561746 0.0563462 0.0565181
0.0566904 0.0568642 0.0570382 0.0572125 0.057387 0.057562 0.0577385 0.0579152 0.0580923 0.0582696
0.0584473 0.0584633 0.0584792 0.0584952 0.0585112 0.0585271 0.0586905 0.0588542 0.0590182 0.0591823
0.0593469 0.0595292 0.0597117 0.0598945 0.0600776 0.0602613 0.0604466 0.0606322 0.0608181 0.0610044
0.0611912 0.0613797 0.0615686 0.0617578 0.0619473 0.0621375 0.0622019 0.0622663 0.0623308 0.0623954
0.0624587 0.0625869 0.0627152 0.0628437 0.0629723 0.0631012 0.0632966 0.0634922 0.0636883 0.0638848
0.0640819 0.0642808 0.0644802 0.0646799 0.06488 0.0650808 0.0652835 0.0654867 0.0656902 0.0658942
0.066099 0.0661829 0.066267 0.0663511 0.0664352 0.0665177 0.0666414 0.0667653 0.0668893 0.0670135
0.0671379 0.0673487 0.06756 0.0677717 0.0679839 0.0681969 0.068412 0.0686276 0.0688436 0.0690601
0.0692776 0.0694972 0.0697173 0.0699379 0.0701591 0.0703811 0.0704557 0.0705304 0.0706051 0.0706799
0.0707535 0.0709041 0.071055 0.0712062 0.0713576 0.0715094 0.0717385 0.0719683 0.0721986 0.0724295
0.0726614 0.0728957 0.0731306 0.073366 0.0736021 0.0738393 0.074079 0.0743192 0.0745602 0.0748018
0.0750446 0.0750796 0.0751147 0.0751498 0.0751849 0.0752198 0.0754304 0.0756416 0.0758533 0.0760656
0.0762787 0.0765297 0.0767814 0.0770339 0.0772871 0.0775415 0.0777987 0.0780565 0.0783151 0.0785745
0.0788353 0.0790638 0.0792929 0.0795227 0.0797531 0.0799759 0.0800131 0.0800504 0.0800877 0.0801249
0.0801623 0.0804324 0.0807034 0.0809753 0.0812481 0.0815223 0.0817994 0.0820774 0.0823562 0.082636
0.0829173 0.0832017 0.083487 0.0837732 0.0840605 0.0843493 0.0844973 0.0846456 0.0847942 0.0849431
0.0850893 0.0852352 0.0853814 0.0855279 0.0856746 0.0858217 0.0861216 0.0864225 0.0867245 0.0870276
0.0873324 0.0876407 0.0879499 0.0882602 0.0885717 0.0888851 0.089202 0.08952 0.0898392 0.0901597
0.0904821 0.0905134 0.0905447 0.090576 0.0906073 0.0906385 0.0909338 0.0912301 0.0915275 0.0918259
0.0921258 0.0924612 0.0927978 0.0931357 0.0934749 0.0938163 0.0941615 0.0945081 0.094856 0.0952053
0.0955568 0.0957885 0.0960208 0.0962537 0.0964873 0.0967169 0.0968435 0.0969704 0.0970974 0.0972247
0.0973522 0.0977185 0.0980863 0.0984556 0.0988265 0.0991997 0.0995773 0.0999563 0.100337 0.100719
0.101104 0.101493 0.101884 0.102276 0.102671 0.103068 0.103142 0.103216 0.10329 0.103364
0.103438 0.103767 0.104097 0.104428 0.104761 0.105095 0.105509 0.105925 0.106342 0.106762
0.107184 0.107611 0.10804 0.108471 0.108904 0.10934 0.10966 0.10998 0.110302 0.110625
0.110944 0.111069 0.111193 0.111318 0.111443 0.111568 0.112023 0.112481 0.11294 0.113401
0.113866 0.114336 0.114807 0.115281 0.115758 0.116237 0.116722 0.117209 0.117699 0.11819
0.118685 0.118832 0.118978 0.119125 0.119272 0.119419 0.119776 0.120134 0.120493 0.120854
0.121216 0.121733 0.122252 0.122773 0.123297 0.123824 0.124357 0.124892 0.12543 0.12597
0.126513 0.127027 0.127542 0.12806 0.12858 0.129099 0.129137 0.129174 0.129212 0.12925
0.129287 0.129854 0.130423 0.130995 0.13157 0.132147 0.132731 0.133318 0.133908 0.134501
0.135096 0.135698 0.136303 0.136911 0.137521 0.138134 0.138322 0.13851 0.138699 0.138887
0.139077 0.139512 0.139948 0.140386 0.140825 0.141265 0.141903 0.142544 0.143187 0.143834
0.144482 0.145138 0.145797 0.146458 0.147122 0.147788 0.148212 0.148637 0.149062 0.149489
0.149922 0.150174 0.150426 0.150679 0.150932 0.151185 0.151877 0.152571 0.153267 0.153966
0.154666 0.155374 0.156085 0.156799 0.157514 0.158231 0.158948 0.159667 0.160389 0.161113
0.161863 0.161866 0.161869 0.161871 0.161874 0.161877 0.162618 0.163361 0.164106 0.164854
0.165601 0.166357 0.167115 0.167875 0.168637 0.169399 0.170169 0.170941 0.171715 0.172491
0.173266 0.173654 0.174043 0.174432 0.174822 0.175222 0.175617 0.176012 0.176407 0.176803
0.177199 0.177994 0.178792 0.17959 0.18039 0.181189 0.181996 0.182804 0.183614 0.184424
0.185233 0.18605 0.186868 0.187687 0.188506 0.189324 0.189551 0.189778 0.190004 0.190231
0.190463 0.191061 0.19166 0.19226 0.192859 0.193458 0.194291 0.195125 0.19596 0.196795
0.197627 0.198467 0.199307 0.200148 0.200988 0.201826 0.202672 0.203517 0.204363 0.205208
0.20605 0.206495 0.20694 0.207385 0.207829 0.208294 0.208694 0.209094 0.209494 0.209894
0.210293 0.211146 0.211999 0.212851 0.213703 0.214551 0.215407 0.216261 0.217116 0.217969
0.218819 0.219676 0.220532 0.221387 0.222242 0.223093 0.22395 0.224807 0.225663 0.226517
0.227368 0.227874 0.228379 0.228884 0.229389 0.229924 0.230268 0.230611 0.230955 0.231298
0.231641 0.232498 0.233353 0.234208 0.23506 0.23591 0.236766 0.23762 0.238473 0.239324
0.240173 0.241027 0.241879 0.24273 0.24358 0.244426 0.245278 0.246128 0.246977 0.247824
0.248668 0.249518 0.250365 0.251212 0.252056 0.252898 0.253745 0.25459 0.255433 0.256275
0.257114 0.257227 0.25734 0.257453 0.257567 0.257682 0.258411 0.259139 0.259865 0.26059
0.261314 0.262155 0.262994 0.263831 0.264666 0.265499 0.266337 0.267173 0.268007 0.268839
0.269669 0.270504 0.271336 0.272167 0.272996 0.273823 0.274654 0.275483 0.276311 0.277137