/*--------------------------------*- C++ -*----------------------------------*\
  =========                 |
  \\      /  F ield         | OpenFOAM: The Open Source CFD Toolbox
   \\    /   O peration     | Website:  https://openfoam.org
    \\  /    A nd           | Version:  10
     \\/     M anipulation  |
\*---------------------------------------------------------------------------*/
FoamFile
{
    format      ascii;
    class       volScalarField;
    location    "200";
    object      k;
}
// * * * * * * * * * * * * * * * * * * * * * * * * * * * * * * * * * * * * * //

dimensions      [0 2 -2 0 0 0 0];

internalField   nonuniform List<scalar> 
12225
(
0.233344
0.116785
0.100291
0.0928488
0.0876469
0.0833154
0.0795296
0.0761651
0.0731497
0.0704344
0.067982
0.065763
0.0637544
0.0619396
0.0603118
0.0588874
0.0576405
0.0575584
0.315612
0.236007
0.214591
0.20324
0.194949
0.187977
0.181833
0.17633
0.17136
0.166851
0.162748
0.159007
0.155589
0.152462
0.149594
0.146933
0.14444
0.141646
0.347026
0.295217
0.273455
0.260092
0.249874
0.241138
0.233345
0.226291
0.219862
0.213982
0.20859
0.203638
0.199078
0.194869
0.190963
0.187292
0.183797
0.180057
0.363261
0.332134
0.313063
0.299367
0.288248
0.278491
0.269656
0.261571
0.254142
0.247302
0.240994
0.235169
0.229779
0.224775
0.220102
0.215695
0.211493
0.207284
0.372811
0.357362
0.342527
0.329787
0.318558
0.308323
0.298859
0.290081
0.281936
0.27438
0.267371
0.260864
0.254814
0.249174
0.243887
0.238897
0.234158
0.229583
0.378778
0.374551
0.364832
0.354029
0.343386
0.333164
0.323442
0.314264
0.305642
0.297572
0.290031
0.282991
0.276414
0.270257
0.264472
0.259012
0.253852
0.248965
0.382229
0.385805
0.381201
0.37305
0.36361
0.353873
0.344259
0.334972
0.326112
0.317724
0.30982
0.302391
0.295414
0.288855
0.282677
0.276851
0.271363
0.266209
0.38361
0.392599
0.392073
0.387201
0.379451
0.370635
0.361495
0.352402
0.343555
0.335061
0.326973
0.31931
0.312068
0.30523
0.298773
0.292681
0.286952
0.281585
0.383448
0.395385
0.398437
0.396253
0.390854
0.383337
0.37502
0.366428
0.357858
0.349484
0.341408
0.333683
0.326329
0.319348
0.312734
0.306485
0.300606
0.295093
0.382191
0.394933
0.400626
0.400528
0.397534
0.391715
0.384562
0.376763
0.368733
0.360717
0.352863
0.345265
0.337969
0.330997
0.324361
0.318075
0.312146
0.306571
0.380298
0.391921
0.398986
0.400836
0.39944
0.395561
0.389741
0.383003
0.375786
0.368381
0.360983
0.353713
0.346654
0.339854
0.333346
0.327151
0.321287
0.315749
0.378353
0.387567
0.394575
0.397599
0.39727
0.394999
0.390529
0.384841
0.378488
0.3718
0.364999
0.358218
0.351556
0.345081
0.338838
0.332858
0.327165
0.321767
0.376501
0.382493
0.388415
0.391814
0.392253
0.39105
0.387982
0.383373
0.377979
0.372109
0.365992
0.359793
0.353626
0.347573
0.341693
0.336034
0.33062
0.325461
0.374728
0.376457
0.380074
0.382773
0.383488
0.382891
0.380986
0.377522
0.373221
0.368356
0.363144
0.35775
0.352297
0.346875
0.341552
0.336376
0.331382
0.326596
0.372729
0.370577
0.370669
0.371162
0.371113
0.370501
0.369012
0.366449
0.363162
0.359337
0.355138
0.350703
0.346144
0.341547
0.336977
0.332486
0.328111
0.323891
0.371138
0.365251
0.361458
0.358966
0.356989
0.35515
0.353161
0.350809
0.348083
0.345029
0.341716
0.338216
0.334597
0.330918
0.327228
0.323566
0.319968
0.316472
0.369957
0.361268
0.354282
0.34874
0.344234
0.340446
0.337129
0.334075
0.331146
0.328262
0.325384
0.322498
0.319604
0.316711
0.313832
0.310979
0.308169
0.305425
0.369316
0.359172
0.350473
0.343111
0.33688
0.331586
0.327053
0.323114
0.319626
0.316472
0.313563
0.310832
0.308232
0.30573
0.303306
0.300945
0.298641
0.2964
0.369503
0.359746
0.351468
0.344538
0.338714
0.333775
0.329531
0.325808
0.322465
0.319396
0.316522
0.313787
0.311156
0.308603
0.306114
0.30368
0.301296
0.298948
0.370697
0.363762
0.358764
0.355138
0.352279
0.349813
0.347461
0.345013
0.342394
0.339589
0.33662
0.333521
0.330332
0.327092
0.323834
0.320586
0.317371
0.3142
0.372684
0.370374
0.370298
0.370578
0.370495
0.369905
0.368503
0.366112
0.36303
0.359424
0.355447
0.351231
0.34688
0.342477
0.338085
0.33375
0.329504
0.32537
0.3756
0.379073
0.383918
0.387099
0.387898
0.387147
0.38491
0.381082
0.376427
0.371239
0.365736
0.36009
0.354423
0.34882
0.34334
0.338021
0.332889
0.327966
0.378757
0.388355
0.395557
0.398446
0.397945
0.395436
0.390648
0.384768
0.378265
0.371462
0.364605
0.357815
0.351173
0.344736
0.338541
0.332609
0.326951
0.321578
0.381903
0.394284
0.400233
0.400151
0.397291
0.39162
0.384608
0.376944
0.369024
0.3611
0.353313
0.345765
0.338522
0.331617
0.32506
0.318853
0.312991
0.307473
0.383412
0.393692
0.395146
0.391706
0.384917
0.376623
0.367745
0.358764
0.349938
0.341409
0.333247
0.325498
0.318176
0.311275
0.304784
0.298685
0.292961
0.287606
0.381713
0.384451
0.379883
0.371238
0.361444
0.35145
0.34166
0.332231
0.323255
0.31477
0.306784
0.299293
0.292281
0.285725
0.279597
0.273869
0.268517
0.263534
0.375353
0.364937
0.35209
0.339755
0.32838
0.317845
0.30803
0.298868
0.290324
0.282368
0.274964
0.268077
0.261674
0.255719
0.250177
0.245019
0.240211
0.235757
0.363151
0.330201
0.310877
0.296824
0.285355
0.275342
0.266298
0.258018
0.250403
0.243383
0.236901
0.230909
0.225365
0.220231
0.215471
0.211054
0.206944
0.203162
0.338596
0.272956
0.249919
0.236554
0.226518
0.218062
0.210561
0.20378
0.197606
0.191962
0.186785
0.182029
0.17765
0.173614
0.169887
0.166445
0.163241
0.160336
0.277118
0.165425
0.142179
0.131298
0.123803
0.117668
0.112294
0.107478
0.103122
0.0991638
0.0955538
0.0922536
0.0892306
0.0864575
0.0839056
0.0815669
0.0793784
0.0774305
3.59914e-05
0.000265576
0.000532935
0.000769471
0.00096244
0.00113401
0.00131263
0.0014988
0.00170119
0.00192805
0.00218566
0.00247967
0.00281643
0.00320349
0.00364879
0.00415842
0.00473447
0.00537602
0.00607969
0.00684054
0.00765329
0.00851249
0.00941238
0.0103478
0.0113122
0.0123009
0.0133103
0.0143375
0.0153796
0.0164344
0.0175001
0.018575
0.0196575
0.0207463
0.02184
0.0229376
0.0240378
0.0251395
0.0262415
0.0273426
0.0284417
0.0295374
0.0306285
0.0317136
0.0327913
0.0338601
0.0349185
0.0359649
0.0369978
0.0380155
0.0390166
0.0399999
0.0409648
0.0419115
0.0428425
0.0437495
0.0446322
0.0454896
0.046321
0.0471249
0.0479005
0.0486464
0.0493618
0.0500454
0.0506966
0.0513142
0.0518977
0.0524462
0.0529593
0.0534363
0.0538771
0.054281
0.054648
0.0549778
0.0552706
0.0555262
0.0557448
0.0559266
0.0560718
0.0561806
0.0562533
0.0562845
0.0562857
0.0562546
0.0561894
0.0560907
0.0559596
0.055797
0.0556036
0.0553805
0.0551285
0.0548486
0.0545416
0.0542085
0.0538504
0.0534681
0.0530626
0.052635
0.0521863
0.0517175
0.0512295
0.0507233
0.0502
0.0496604
0.0491055
0.0485362
0.0479533
0.0473577
0.0467512
0.0461349
0.0455083
0.0448726
0.0442288
0.0435779
0.0429207
0.042258
0.0415905
0.0409191
0.0402443
0.0395672
0.0388883
0.0382084
0.037528
0.0368478
0.0361682
0.0354901
0.0348139
0.0341404
0.0334699
0.0328032
0.0321405
0.031483
0.0308307
0.0301839
0.0295431
0.0289087
0.028281
0.0276604
0.0270473
0.0264421
0.0258449
0.0252562
0.0246762
0.024105
0.0235429
0.0229901
0.0224469
0.0219133
0.0213896
0.0208759
0.0203723
0.0198787
0.0193952
0.018922
0.018459
0.0180065
0.0175642
0.0171324
0.0167111
0.0162999
0.0158987
0.0155074
0.0151261
0.0147545
0.0143926
0.0140401
0.0136968
0.0133624
0.0130366
0.0127192
0.0124092
0.0121073
0.0118135
0.0115245
0.0112438
0.0109572
0.0106956
0.0103786
0.0101553
0.00932335
0.000214805
0.00150156
0.00263646
0.00346942
0.0041425
0.00472966
0.00527933
0.00583612
0.00642427
0.00705435
0.00772893
0.00844833
0.00921494
0.0100328
0.0109052
0.0118337
0.0128168
0.0138514
0.0149329
0.0160562
0.0172163
0.0184086
0.0196285
0.0208725
0.0221373
0.0234208
0.0247208
0.0260359
0.0273646
0.0287059
0.0300586
0.0314216
0.0327939
0.0341744
0.0355619
0.0369555
0.0383539
0.0397559
0.0411602
0.0425655
0.0439704
0.0453735
0.0467731
0.0481678
0.0495557
0.0509351
0.0523041
0.0536607
0.0550028
0.0563283
0.0576347
0.0589194
0.0601795
0.0614114
0.0626108
0.0637803
0.0649209
0.0660314
0.0671105
0.0681564
0.0691677
0.0701429
0.0710805
0.0719792
0.0728377
0.0736549
0.0744297
0.0751612
0.0758486
0.0764912
0.0770884
0.0776398
0.0781451
0.078604
0.0790165
0.0793825
0.0797024
0.0799762
0.0802044
0.0803873
0.0805257
0.0806169
0.0806595
0.080667
0.0806326
0.080556
0.0804387
0.080282
0.0800868
0.0798543
0.0795856
0.0792818
0.0789441
0.0785736
0.0781715
0.0777391
0.0772775
0.0767879
0.0762715
0.0757296
0.0751633
0.0745738
0.0739623
0.0733298
0.0726776
0.0720067
0.0713184
0.0706138
0.0698945
0.0691615
0.068415
0.0676561
0.0668861
0.0661059
0.0653165
0.0645188
0.0637138
0.0629024
0.0620854
0.0612638
0.0604383
0.0596098
0.058779
0.0579467
0.0571135
0.0562803
0.0554477
0.0546164
0.0537871
0.0529605
0.0521372
0.0513178
0.0505029
0.049693
0.0488887
0.0480905
0.0472989
0.0465143
0.0457372
0.0449682
0.0442074
0.0434553
0.0427122
0.0419785
0.0412544
0.0405403
0.0398364
0.039143
0.0384604
0.0377888
0.0371282
0.0364788
0.0358408
0.0352143
0.0345995
0.0339965
0.0334055
0.0328263
0.0322591
0.0317036
0.0311601
0.0306284
0.0301087
0.0296009
0.0291049
0.0286204
0.0281475
0.0276858
0.0272353
0.0267957
0.0263671
0.0259473
0.0255351
0.025131
0.0247362
0.0243462
0.0239749
0.0235816
0.0232996
0.0224637
0.000508965
0.00304163
0.00477532
0.00599303
0.00699346
0.00789755
0.00876817
0.00964255
0.0105408
0.0114713
0.012436
0.013435
0.0144689
0.0155391
0.016647
0.0177936
0.0189796
0.0202043
0.0214665
0.0227638
0.0240937
0.0254532
0.0268402
0.0282525
0.0296881
0.0311454
0.0326228
0.0341185
0.0356313
0.0371597
0.0387023
0.0402577
0.0418248
0.0434021
0.0449885
0.0465826
0.0481831
0.0497887
0.051398
0.0530095
0.0546217
0.056233
0.0578417
0.059446
0.061044
0.0626337
0.064213
0.0657798
0.0673318
0.0688667
0.070382
0.0718753
0.0733442
0.0747864
0.0761998
0.0775828
0.0789337
0.0802504
0.0815309
0.0827731
0.083975
0.0851348
0.0862507
0.087321
0.088344
0.0893184
0.0902429
0.0911163
0.0919376
0.0927059
0.0934205
0.094081
0.0946868
0.0952376
0.0957335
0.0961744
0.0965604
0.0968918
0.097169
0.0973925
0.0975628
0.0976802
0.0977402
0.0977542
0.0977199
0.0976361
0.0975043
0.0973257
0.0971016
0.0968333
0.0965221
0.0961694
0.0957765
0.0953448
0.0948757
0.0943707
0.093831
0.0932583
0.0926538
0.0920189
0.0913552
0.0906638
0.0899462
0.0892037
0.0884377
0.0876495
0.0868404
0.0860117
0.0851649
0.0843011
0.0834214
0.0825269
0.0816188
0.0806981
0.0797661
0.0788237
0.0778722
0.0769125
0.0759457
0.0749726
0.0739944
0.0730119
0.072026
0.0710376
0.0700474
0.0690564
0.0680654
0.0670751
0.0660863
0.0650998
0.0641162
0.0631363
0.0621608
0.0611903
0.0602255
0.0592668
0.0583149
0.0573703
0.0564336
0.0555053
0.0545857
0.0536754
0.0527748
0.0518842
0.051004
0.0501346
0.0492763
0.0484294
0.0475942
0.046771
0.0459597
0.0451606
0.0443739
0.0435999
0.0428386
0.0420904
0.0413553
0.0406334
0.0399246
0.0392288
0.0385462
0.0378768
0.0372207
0.036578
0.0359484
0.0353318
0.0347282
0.0341375
0.0335596
0.0329944
0.0324419
0.0319014
0.0313721
0.030854
0.0303484
0.0298547
0.0293834
0.0289122
0.0285778
0.0278638
0.000884777
0.00459252
0.00683792
0.00835955
0.00959158
0.0106937
0.0117444
0.0127872
0.0138455
0.0149304
0.0160455
0.0171916
0.0183689
0.0195782
0.0208209
0.0220985
0.023412
0.0247618
0.0261472
0.0275673
0.0290206
0.0305056
0.0320205
0.0335634
0.0351328
0.036727
0.0383442
0.0399829
0.0416418
0.0433194
0.0450143
0.0467253
0.048451
0.0501902
0.0519417
0.053704
0.0554758
0.0572558
0.0590423
0.0608339
0.0626288
0.0644253
0.0662214
0.0680151
0.0698043
0.0715866
0.0733598
0.0751214
0.0768688
0.0785994
0.0803105
0.0819995
0.0836637
0.0853003
0.0869068
0.0884805
0.0900187
0.091519
0.0929787
0.0943953
0.0957666
0.0970901
0.0983638
0.0995856
0.100754
0.101866
0.102922
0.103919
0.104857
0.105735
0.106551
0.107304
0.107996
0.108624
0.10919
0.109692
0.110132
0.110509
0.110825
0.111078
0.111271
0.111404
0.111473
0.111487
0.111446
0.111348
0.111196
0.110991
0.110733
0.110426
0.110069
0.109665
0.109215
0.108721
0.108185
0.107607
0.106991
0.106336
0.105646
0.104921
0.104163
0.103374
0.102555
0.101708
0.100834
0.099935
0.0990125
0.0980676
0.097102
0.096117
0.095114
0.0940942
0.0930589
0.0920095
0.0909471
0.089873
0.0887885
0.0876947
0.0865927
0.0854837
0.0843688
0.0832489
0.0821251
0.0809984
0.0798697
0.0787399
0.07761
0.0764808
0.0753532
0.074228
0.073106
0.071988
0.0708747
0.069767
0.0686654
0.0675705
0.0664831
0.0654038
0.064333
0.0632714
0.0622195
0.0611778
0.0601466
0.0591265
0.0581179
0.0571212
0.0561366
0.0551646
0.0542055
0.0532595
0.0523268
0.0514076
0.0505022
0.0496108
0.0487335
0.0478705
0.0470219
0.0461879
0.0453681
0.0445627
0.0437717
0.0429954
0.0422337
0.0414868
0.0407543
0.0400361
0.0393323
0.038643
0.037968
0.0373072
0.0366608
0.0360285
0.0354102
0.0348061
0.0342174
0.0336455
0.0330982
0.0325668
0.0321491
0.0315099
0.00128264
0.00604427
0.00872698
0.0105051
0.0119218
0.0131673
0.0143347
0.0154762
0.0166215
0.0177867
0.0189797
0.0202041
0.0214615
0.0227531
0.0240801
0.0254438
0.0268449
0.0282837
0.0297599
0.0312729
0.0328215
0.0344046
0.0360206
0.0376679
0.0393453
0.041051
0.0427838
0.0445423
0.0463252
0.0481312
0.0499591
0.0518076
0.0536754
0.0555614
0.0574642
0.0593823
0.0613143
0.0632587
0.0652136
0.0671775
0.0691481
0.0711237
0.0731018
0.0750801
0.0770562
0.0790274
0.0809909
0.0829439
0.0848835
0.0868066
0.08871
0.0905906
0.0924452
0.0942706
0.0960635
0.0978206
0.0995389
0.101215
0.102846
0.10443
0.105963
0.107442
0.108866
0.110232
0.111537
0.112781
0.11396
0.115074
0.116121
0.1171
0.118011
0.118851
0.119621
0.120321
0.12095
0.121509
0.121997
0.122414
0.122763
0.123042
0.123253
0.123397
0.12347
0.123482
0.123431
0.123317
0.123142
0.122908
0.122616
0.122267
0.121864
0.121409
0.120902
0.120346
0.119743
0.119094
0.118402
0.117668
0.116893
0.116081
0.115232
0.114348
0.113432
0.112484
0.111507
0.110502
0.109471
0.108415
0.107337
0.106237
0.105117
0.103979
0.102824
0.101654
0.100469
0.099272
0.0980632
0.0968444
0.0956168
0.0943815
0.0931399
0.0918931
0.0906422
0.0893882
0.0881322
0.0868753
0.0856183
0.0843624
0.0831084
0.0818573
0.0806099
0.079367
0.0781295
0.0768982
0.0756737
0.0744569
0.0732483
0.0720487
0.0708587
0.0696788
0.0685096
0.0673517
0.0662055
0.0650716
0.0639502
0.062842
0.0617471
0.0606661
0.0595992
0.0585466
0.0575088
0.0564859
0.055478
0.0544855
0.0535084
0.052547
0.0516014
0.0506716
0.0497577
0.0488596
0.0479774
0.0471113
0.0462612
0.0454271
0.0446087
0.0438059
0.043019
0.0422479
0.0414926
0.040753
0.0400292
0.0393215
0.03863
0.0379552
0.0372985
0.0366623
0.0360526
0.0354686
0.0349756
0.0343282
0.00165223
0.00730536
0.0103458
0.0123371
0.0139047
0.0152621
0.0165147
0.0177222
0.0189209
0.0201324
0.0213693
0.0226384
0.0239437
0.0252872
0.0266702
0.0280936
0.0295579
0.0310631
0.0326088
0.0341946
0.0358194
0.0374821
0.0391816
0.0409167
0.0426861
0.0444887
0.0463234
0.0481889
0.0500843
0.0520083
0.0539598
0.0559376
0.0579405
0.0599671
0.0620159
0.0640855
0.0661742
0.0682802
0.0704017
0.0725364
0.0746822
0.0768366
0.0789969
0.0811604
0.0833242
0.0854852
0.08764
0.0897854
0.0919178
0.0940338
0.0961295
0.0982013
0.100245
0.102258
0.104235
0.106174
0.108069
0.109919
0.111719
0.113465
0.115156
0.116788
0.118358
0.119863
0.121302
0.122671
0.12397
0.125196
0.126348
0.127424
0.128424
0.129346
0.130191
0.130958
0.131646
0.132256
0.132788
0.133243
0.13362
0.133922
0.134148
0.1343
0.134375
0.134382
0.134319
0.134187
0.133988
0.133723
0.133394
0.133004
0.132554
0.132047
0.131483
0.130865
0.130196
0.129476
0.128709
0.127896
0.12704
0.126141
0.125203
0.124228
0.123216
0.122171
0.121093
0.119985
0.11885
0.117687
0.1165
0.11529
0.114058
0.112807
0.111537
0.110251
0.108949
0.107634
0.106307
0.10497
0.103623
0.102268
0.100907
0.0995397
0.0981688
0.096795
0.0954193
0.094043
0.0926671
0.0912926
0.0899206
0.088552
0.0871878
0.0858288
0.084476
0.0831302
0.0817922
0.0804627
0.0791425
0.0778323
0.0765327
0.0752444
0.073968
0.0727039
0.0714529
0.0702153
0.0689915
0.0677821
0.0665875
0.0654079
0.0642437
0.0630953
0.0619629
0.0608468
0.0597471
0.0586641
0.0575979
0.0565487
0.0555167
0.0545018
0.0535042
0.0525239
0.0515609
0.0506153
0.0496871
0.0487763
0.0478827
0.0470063
0.0461472
0.0453054
0.0444808
0.0436732
0.0428829
0.0421104
0.041356
0.0406205
0.0399054
0.0392136
0.03855
0.0379179
0.0373583
0.036694
0.00196368
0.00833015
0.0116504
0.0138129
0.0155033
0.0169526
0.0182745
0.0195346
0.0207738
0.0220184
0.0232852
0.0245841
0.0259213
0.0273001
0.0287223
0.030189
0.0317006
0.033257
0.0348579
0.0365028
0.0381908
0.0399211
0.0416927
0.043505
0.0453569
0.0472477
0.0491765
0.0511423
0.0531442
0.055181
0.0572518
0.0593553
0.0614904
0.0636556
0.0658493
0.06807
0.0703156
0.0725842
0.0748735
0.0771809
0.0795039
0.0818395
0.0841846
0.0865359
0.08889
0.0912432
0.0935916
0.0959314
0.0982584
0.100568
0.102857
0.10512
0.107354
0.109553
0.111714
0.113831
0.115902
0.117922
0.119888
0.121795
0.12364
0.12542
0.127132
0.128772
0.13034
0.131831
0.133244
0.134577
0.135828
0.136997
0.138081
0.139081
0.139995
0.140824
0.141567
0.142224
0.142796
0.143284
0.143687
0.144007
0.144244
0.144401
0.144476
0.144475
0.144397
0.144245
0.144019
0.143723
0.143357
0.142924
0.142427
0.141866
0.141245
0.140566
0.13983
0.139041
0.1382
0.13731
0.136372
0.13539
0.134364
0.133298
0.132194
0.131053
0.129877
0.12867
0.127432
0.126166
0.124873
0.123556
0.122216
0.120855
0.119475
0.118077
0.116663
0.115235
0.113795
0.112343
0.110882
0.109413
0.107937
0.106456
0.104971
0.103483
0.101994
0.100505
0.099016
0.0975294
0.0960459
0.0945666
0.0930924
0.0916243
0.0901633
0.0887102
0.0872658
0.0858311
0.0844067
0.0829934
0.0815919
0.0802029
0.0788269
0.0774646
0.0761165
0.0747831
0.0734649
0.0721623
0.0708758
0.0696057
0.0683523
0.0671161
0.0658972
0.0646959
0.0635124
0.0623469
0.0611997
0.0600707
0.0589603
0.0578684
0.0567951
0.0557404
0.0547044
0.0536871
0.0526885
0.0517087
0.0507475
0.0498049
0.048881
0.0479758
0.0470894
0.0462216
0.0453728
0.0445434
0.0437338
0.0429448
0.0421785
0.0414374
0.040726
0.0400491
0.0394314
0.0387435
0.00220407
0.00911085
0.0126379
0.0149314
0.0167194
0.0182452
0.019627
0.0209338
0.0222097
0.0234841
0.0247765
0.0260998
0.0274619
0.0288677
0.0303201
0.0318208
0.0333702
0.0349685
0.0366155
0.0383106
0.0400535
0.0418437
0.0436809
0.0455643
0.0474936
0.0494682
0.0514872
0.0535501
0.0556559
0.057804
0.0599933
0.0622226
0.0644905
0.0667957
0.0691363
0.0715103
0.0739156
0.0763498
0.0788101
0.0812936
0.0837971
0.0863172
0.0888502
0.0913923
0.0939393
0.0964869
0.0990306
0.101566
0.104088
0.106592
0.109074
0.111527
0.113948
0.116331
0.118672
0.120966
0.123208
0.125394
0.12752
0.129582
0.131575
0.133498
0.135345
0.137114
0.138803
0.140408
0.141929
0.143362
0.144706
0.145959
0.147122
0.148192
0.14917
0.150054
0.150846
0.151545
0.152151
0.152666
0.15309
0.153424
0.153669
0.153827
0.153898
0.153886
0.153791
0.153616
0.153362
0.153032
0.152628
0.152151
0.151605
0.150992
0.150314
0.149573
0.148772
0.147913
0.147
0.146033
0.145016
0.143951
0.14284
0.141686
0.140491
0.139257
0.137987
0.136682
0.135346
0.133979
0.132585
0.131164
0.12972
0.128253
0.126767
0.125262
0.123741
0.122205
0.120656
0.119095
0.117525
0.115947
0.114362
0.112772
0.111179
0.109583
0.107986
0.106389
0.104793
0.103201
0.101612
0.100028
0.0984502
0.0968793
0.0953165
0.0937626
0.0922185
0.0906851
0.0891632
0.0876535
0.0861568
0.0846738
0.0832051
0.0817513
0.080313
0.0788907
0.0774849
0.0760961
0.0747246
0.0733708
0.0720352
0.070718
0.0694195
0.0681399
0.0668795
0.0656384
0.0644168
0.0632149
0.0620328
0.0608705
0.0597282
0.0586058
0.0575034
0.0564209
0.0553585
0.0543161
0.0532936
0.0522911
0.0513085
0.050346
0.0494036
0.0484814
0.0475798
0.0466991
0.04584
0.0450035
0.0441915
0.0434064
0.0426519
0.0419333
0.0412648
0.0405497
0.00237204
0.00966291
0.013331
0.0157189
0.0175815
0.0191696
0.0206034
0.0219534
0.0232649
0.024569
0.0258872
0.0272341
0.0286197
0.0300503
0.0315295
0.0330597
0.0346418
0.0362766
0.0379644
0.0397052
0.0414992
0.0433461
0.045246
0.0471986
0.0492039
0.0512613
0.0533705
0.0555311
0.0577424
0.0600038
0.0623141
0.0646722
0.0670766
0.0695256
0.0720171
0.0745488
0.0771182
0.0797223
0.0823579
0.0850215
0.0877094
0.0904174
0.0931412
0.0958763
0.0986177
0.101361
0.1041
0.10683
0.109546
0.112242
0.114912
0.117552
0.120155
0.122717
0.125232
0.127694
0.1301
0.132443
0.134721
0.136928
0.13906
0.141114
0.143087
0.144974
0.146774
0.148484
0.150101
0.151623
0.15305
0.154379
0.155609
0.156741
0.157773
0.158704
0.159536
0.160269
0.160903
0.161438
0.161876
0.162219
0.162466
0.16262
0.162683
0.162656
0.162542
0.162341
0.162057
0.161691
0.161247
0.160726
0.160131
0.159465
0.158729
0.157928
0.157062
0.156136
0.155151
0.15411
0.153015
0.15187
0.150677
0.149438
0.148156
0.146832
0.145471
0.144073
0.142642
0.141179
0.139687
0.138168
0.136624
0.135057
0.133469
0.131863
0.130239
0.1286
0.126948
0.125284
0.123611
0.12193
0.120242
0.118549
0.116853
0.115154
0.113456
0.111758
0.110062
0.10837
0.106682
0.105
0.103325
0.101658
0.0999997
0.0983516
0.0967144
0.0950889
0.0934761
0.0918767
0.0902914
0.0887211
0.0871663
0.0856276
0.0841058
0.0826012
0.0811143
0.0796458
0.0781959
0.076765
0.0753536
0.0739618
0.0725901
0.0712386
0.0699075
0.0685971
0.0673075
0.0660388
0.0647912
0.0635647
0.0623593
0.0611752
0.0600122
0.0588705
0.05775
0.0566508
0.0555727
0.0545158
0.0534802
0.0524658
0.0514728
0.0505014
0.0495519
0.0486248
0.0477208
0.0468411
0.0459875
0.0451623
0.0443689
0.0436118
0.0428985
0.0421552
0.00247315
0.0100126
0.0137656
0.0162156
0.0181317
0.0197686
0.0212465
0.0226357
0.023982
0.025317
0.0266632
0.0280362
0.0294468
0.0309024
0.0324079
0.0339665
0.0355804
0.0372509
0.0389791
0.0407655
0.0426108
0.0445153
0.0464795
0.0485035
0.0505873
0.052731
0.0549344
0.0571974
0.0595194
0.0618997
0.0643371
0.0668304
0.0693777
0.0719771
0.074626
0.0773219
0.0800614
0.0828412
0.0856573
0.0885056
0.0913815
0.0942803
0.0971967
0.100126
0.103061
0.105998
0.10893
0.111851
0.114755
0.117636
0.120488
0.123305
0.126081
0.128811
0.131487
0.134106
0.136662
0.139149
0.141564
0.143901
0.146158
0.148328
0.150411
0.152401
0.154297
0.156095
0.157794
0.159392
0.160887
0.162278
0.163563
0.164743
0.165817
0.166785
0.167647
0.168403
0.169055
0.169602
0.170047
0.170391
0.170634
0.170779
0.170828
0.170783
0.170644
0.170415
0.170098
0.169695
0.169209
0.168642
0.167998
0.167279
0.166487
0.165626
0.164697
0.163705
0.162651
0.161538
0.16037
0.159148
0.157876
0.156556
0.155191
0.153783
0.152334
0.150849
0.149328
0.147774
0.14619
0.144578
0.14294
0.141279
0.139596
0.137893
0.136174
0.134438
0.13269
0.13093
0.12916
0.127382
0.125597
0.123809
0.122017
0.120223
0.11843
0.116638
0.114849
0.113064
0.111285
0.109512
0.107746
0.10599
0.104244
0.102509
0.100785
0.0990748
0.097378
0.0956959
0.094029
0.0923782
0.0907442
0.0891276
0.0875289
0.0859487
0.0843876
0.0828459
0.0813242
0.0798227
0.0783419
0.0768821
0.0754435
0.0740264
0.0726309
0.0712573
0.0699058
0.0685763
0.0672691
0.0659842
0.0647217
0.0634815
0.0622637
0.0610683
0.0598952
0.0587445
0.0576162
0.0565102
0.0554266
0.0543655
0.0533269
0.0523111
0.0513184
0.0503494
0.0494049
0.0484861
0.0475945
0.0467326
0.0459032
0.0451103
0.0443574
0.0435866
0.00251467
0.0101928
0.0139813
0.0164655
0.0184162
0.020089
0.0216037
0.0230292
0.0244103
0.0257779
0.0271543
0.0285558
0.029994
0.0314776
0.0330125
0.034603
0.0362521
0.0379622
0.0397349
0.0415716
0.0434736
0.0454417
0.0474767
0.049579
0.0517492
0.0539875
0.0562943
0.0586693
0.061112
0.0636215
0.0661965
0.0688353
0.0715358
0.0742956
0.0771114
0.0799801
0.0828977
0.0858599
0.0888622
0.0918994
0.0949662
0.0980569
0.101166
0.104286
0.107412
0.110537
0.113654
0.116757
0.119838
0.122893
0.125913
0.128892
0.131824
0.134703
0.137523
0.140279
0.142965
0.145576
0.148106
0.150553
0.152912
0.155178
0.157349
0.159421
0.161392
0.163259
0.16502
0.166674
0.168219
0.169653
0.170977
0.17219
0.173291
0.17428
0.175158
0.175926
0.176584
0.177133
0.177575
0.177911
0.178143
0.178272
0.1783
0.178232
0.178065
0.177803
0.17745
0.177008
0.176479
0.175867
0.175173
0.174402
0.173555
0.172636
0.171647
0.170591
0.169472
0.168291
0.167053
0.165759
0.164413
0.163017
0.161574
0.160087
0.158558
0.15699
0.155386
0.153748
0.152079
0.150381
0.148657
0.146908
0.145137
0.143347
0.141538
0.139715
0.137877
0.136028
0.13417
0.132303
0.130431
0.128554
0.126674
0.124794
0.122914
0.121036
0.119161
0.117292
0.115428
0.113572
0.111725
0.109887
0.108061
0.106246
0.104444
0.102657
0.100884
0.0991261
0.0973852
0.0956614
0.0939555
0.0922681
0.0905998
0.0889512
0.0873227
0.085715
0.0841283
0.082563
0.0810196
0.0794982
0.0779993
0.076523
0.0750695
0.073639
0.0722316
0.0708475
0.0694867
0.0681493
0.0668353
0.0655448
0.0642777
0.0630341
0.0618139
0.0606171
0.0594437
0.0582937
0.0571671
0.0560641
0.0549847
0.0539292
0.0528979
0.0518914
0.0509105
0.0499563
0.0490305
0.0481352
0.0472727
0.0464466
0.0456579
0.0448609
0.0024989
0.0102038
0.0139948
0.0164968
0.0184726
0.0201764
0.0217252
0.0231858
0.0246015
0.0260027
0.0274122
0.0288465
0.0303179
0.0318358
0.0334073
0.0350375
0.0367304
0.0384894
0.0403169
0.042215
0.0441854
0.0462294
0.0483481
0.0505426
0.0528138
0.0551624
0.0575886
0.060092
0.0626718
0.0653269
0.0680555
0.0708554
0.0737239
0.0766576
0.0796528
0.0827051
0.0858099
0.0889617
0.092155
0.0953839
0.0986419
0.101922
0.105219
0.108524
0.11183
0.115131
0.118419
0.121687
0.124928
0.128134
0.131299
0.134417
0.13748
0.140483
0.14342
0.146284
0.149071
0.151776
0.154395
0.156921
0.159353
0.161686
0.163918
0.166044
0.168063
0.169973
0.171772
0.173457
0.175029
0.176486
0.177827
0.179052
0.180162
0.181155
0.182034
0.182799
0.183449
0.183988
0.184416
0.184734
0.184945
0.18505
0.185051
0.184955
0.184754
0.184457
0.184065
0.183581
0.183009
0.18235
0.181608
0.180785
0.179885
0.178911
0.177865
0.17675
0.175569
0.174325
0.173022
0.171662
0.170247
0.168782
0.167268
0.165709
0.164107
0.162465
0.160786
0.159072
0.157326
0.155551
0.153748
0.151921
0.150071
0.148201
0.146313
0.14441
0.142493
0.140564
0.138626
0.13668
0.134729
0.132773
0.130815
0.128857
0.126899
0.124944
0.122994
0.121048
0.11911
0.11718
0.115259
0.113349
0.111451
0.109565
0.107694
0.105837
0.103996
0.102172
0.100365
0.0985761
0.0968063
0.095056
0.0933258
0.0916164
0.0899282
0.0882617
0.0866173
0.0849954
0.0833964
0.0818205
0.0802681
0.0787393
0.0772343
0.0757534
0.0742965
0.072864
0.0714557
0.0700718
0.0687124
0.0673773
0.0660666
0.0647803
0.0635184
0.0622808
0.0610676
0.0598787
0.0587141
0.057574
0.0564585
0.0553678
0.0543023
0.0532626
0.0522493
0.0512638
0.0503073
0.0493819
0.0484895
0.0476331
0.0468122
0.0459906
0.00246026
0.0101519
0.0139173
0.0164146
0.0183959
0.0201123
0.0216798
0.0231645
0.0246104
0.0260481
0.0274968
0.0289712
0.0304847
0.0320478
0.0336683
0.0353524
0.037105
0.0389302
0.0408309
0.0428096
0.0448685
0.0470098
0.0492351
0.0515459
0.0539431
0.0564273
0.0589984
0.0616555
0.0643975
0.0672224
0.0701277
0.0731102
0.0761661
0.0792912
0.0824804
0.0857282
0.0890287
0.0923756
0.095762
0.0991808
0.102625
0.106086
0.109558
0.113032
0.1165
0.119955
0.123389
0.126794
0.130164
0.133491
0.136768
0.139989
0.143147
0.146236
0.149251
0.152186
0.155037
0.157797
0.160464
0.163034
0.165502
0.167866
0.170122
0.172269
0.174303
0.176224
0.178029
0.179717
0.181288
0.182741
0.184075
0.18529
0.186386
0.187365
0.188225
0.188969
0.189598
0.190112
0.190513
0.190802
0.190983
0.191055
0.191024
0.190891
0.190652
0.190315
0.189882
0.189355
0.188738
0.188034
0.187244
0.186373
0.185422
0.184396
0.183297
0.182127
0.18089
0.17959
0.178228
0.176808
0.175333
0.173806
0.17223
0.170607
0.168941
0.167234
0.165488
0.163708
0.161895
0.160052
0.158181
0.156285
0.154367
0.152428
0.150471
0.148498
0.146512
0.144514
0.142507
0.140493
0.138472
0.136448
0.134422
0.132396
0.130372
0.128351
0.126334
0.124323
0.12232
0.120326
0.118341
0.116368
0.114408
0.112461
0.110529
0.108613
0.106713
0.104831
0.102967
0.101122
0.0992967
0.097492
0.0957083
0.0939463
0.0922064
0.090489
0.0887947
0.0871239
0.0854767
0.0838536
0.0822548
0.0806806
0.0791311
0.0776065
0.0761069
0.0746324
0.073183
0.0717589
0.07036
0.0689863
0.0676379
0.0663146
0.0650165
0.0637436
0.0624958
0.0612731
0.0600755
0.0589033
0.0577564
0.0566351
0.0555398
0.054471
0.0534295
0.0524164
0.0514328
0.0504807
0.0495615
0.0486779
0.0478284
0.0469844
0.00239132
0.0100149
0.0137317
0.0162157
0.0182005
0.0199323
0.0215243
0.0230405
0.0245213
0.0259953
0.0274852
0.0290085
0.0305782
0.0322041
0.0338947
0.0356564
0.0374946
0.0394136
0.0414173
0.0435089
0.0456912
0.0479663
0.0503361
0.052802
0.0553645
0.0580234
0.0607779
0.0636262
0.066566
0.0695941
0.0727065
0.0758987
0.0791654
0.0825007
0.0858982
0.089351
0.0928517
0.0963927
0.0999662
0.103564
0.107178
0.1108
0.114421
0.118034
0.12163
0.125202
0.128743
0.132243
0.135697
0.139098
0.142439
0.145714
0.148917
0.152042
0.155085
0.158041
0.160904
0.163672
0.16634
0.168905
0.171364
0.173714
0.175953
0.178079
0.180089
0.181983
0.18376
0.185417
0.186956
0.188374
0.189673
0.190852
0.191911
0.192852
0.193674
0.194379
0.194968
0.195443
0.195803
0.196053
0.196192
0.196224
0.196154
0.195976
0.195695
0.195314
0.194838
0.194267
0.193606
0.192856
0.192021
0.191104
0.190107
0.189033
0.187886
0.186667
0.185381
0.184031
0.182619
0.181147
0.179621
0.178041
0.176411
0.174735
0.173014
0.171252
0.169452
0.167616
0.165747
0.163847
0.16192
0.159967
0.157991
0.155995
0.153981
0.151951
0.149908
0.147853
0.145788
0.143716
0.141639
0.139559
0.137477
0.135395
0.133314
0.131238
0.129166
0.127101
0.125044
0.122997
0.12096
0.118935
0.116923
0.114925
0.112943
0.110977
0.109029
0.107098
0.105186
0.103295
0.101424
0.0995735
0.0977452
0.0959393
0.0941562
0.0923965
0.0906606
0.0889488
0.0872614
0.0855989
0.0839614
0.0823492
0.0807624
0.0792012
0.0776657
0.076156
0.0746722
0.0732143
0.0717823
0.0703762
0.068996
0.0676416
0.0663131
0.0650103
0.0637333
0.0624821
0.0612567
0.0600572
0.0588837
0.0577365
0.0566158
0.0555223
0.0544566
0.0534197
0.0524127
0.0514373
0.0504947
0.0495871
0.0487126
0.0478488
0.00229755
0.00979733
0.0134576
0.0159238
0.0179103
0.0196578
0.0212775
0.0228321
0.0243625
0.0258974
0.0274589
0.0290588
0.0307117
0.0324301
0.0342241
0.0361016
0.0380681
0.0401285
0.0422868
0.0445461
0.046909
0.0493772
0.0519519
0.0546332
0.0574205
0.0603119
0.0633049
0.0663959
0.0695805
0.0728534
0.0762086
0.0796394
0.0831386
0.0866986
0.0903111
0.0939678
0.0976601