/*--------------------------------*- C++ -*----------------------------------*\
  =========                 |
  \\      /  F ield         | OpenFOAM: The Open Source CFD Toolbox
   \\    /   O peration     | Website:  https://openfoam.org
    \\  /    A nd           | Version:  10
     \\/     M anipulation  |
\*---------------------------------------------------------------------------*/
FoamFile
{
    format      ascii;
    class       volScalarField;
    location    "200";
    object      nut;
}
// * * * * * * * * * * * * * * * * * * * * * * * * * * * * * * * * * * * * * //

dimensions      [0 2 -1 0 0 0 0];

internalField   nonuniform List<scalar> 
12225
(
2.66868e-05
1.33563e-05
1.14699e-05
1.06188e-05
1.00239e-05
9.52849e-06
9.09552e-06
8.71073e-06
8.36586e-06
8.05531e-06
7.77483e-06
7.52104e-06
7.29133e-06
7.08376e-06
6.89758e-06
6.73466e-06
6.59203e-06
6.5826e-06
0.000154686
0.0001167
0.00011064
0.000106661
0.000103547
0.000100809
9.83253e-05
9.60474e-05
9.39473e-05
9.20066e-05
9.02109e-05
8.85493e-05
8.70139e-05
8.55994e-05
8.43172e-05
8.31399e-05
8.2372e-05
8.13643e-05
0.000330884
0.000254482
0.000238612
0.000230175
0.000223868
0.000218368
0.000213347
0.000208688
0.000204341
0.000200276
0.000196471
0.000192914
0.000189596
0.000186511
0.000183689
0.000181107
0.000179292
0.000176966
0.000496383
0.000391468
0.000363051
0.000349796
0.000340477
0.00033259
0.000325467
0.000318873
0.000312709
0.000306926
0.000301493
0.000296392
0.000291613
0.000287151
0.000283038
0.000279279
0.000276338
0.000273256
0.000628827
0.000515814
0.000479267
0.000460367
0.000448446
0.000438594
0.000429818
0.000421738
0.000414191
0.000407103
0.000400433
0.000394156
0.000388259
0.000382735
0.000377609
0.000372909
0.000368957
0.000365172
0.000725426
0.000622345
0.000583628
0.000560828
0.000546508
0.000535115
0.000525091
0.000515915
0.000507363
0.000499329
0.000491758
0.00048462
0.000477897
0.000471581
0.000465688
0.000460255
0.000455481
0.000451019
0.000790594
0.000709488
0.000673204
0.000650762
0.000633999
0.00062168
0.000610842
0.000600946
0.000591728
0.000583062
0.000574881
0.000567154
0.000559859
0.000552985
0.000546544
0.000540571
0.000535178
0.000530137
0.000830776
0.000777987
0.000746317
0.000728534
0.000710667
0.000697939
0.000686793
0.000676583
0.000667043
0.000658046
0.000649529
0.000641464
0.000633828
0.000626613
0.000619825
0.000613494
0.00060768
0.000602208
0.000853124
0.000827455
0.000804928
0.000790822
0.000776501
0.000763406
0.000752617
0.000742569
0.000733087
0.00072408
0.000715505
0.000707352
0.000699606
0.000692259
0.00068532
0.000678815
0.000672771
0.000667039
0.000863391
0.00086007
0.00084889
0.000838104
0.000829504
0.000817623
0.000807907
0.000798564
0.000789573
0.000780913
0.000772582
0.000764616
0.000757001
0.000749742
0.000742855
0.000736364
0.00073028
0.000724469
0.000866013
0.000878378
0.000878141
0.000873125
0.000868509
0.000860025
0.000851684
0.00084381
0.000835933
0.000828129
0.000820467
0.000812998
0.000805782
0.000798851
0.000792233
0.000785958
0.000780032
0.00077433
0.000864412
0.000885112
0.00089243
0.000893408
0.000892186
0.000887867
0.000881634
0.000875453
0.000868838
0.000862093
0.000855378
0.000848726
0.000842204
0.000835868
0.000829762
0.000823898
0.000818309
0.000812889
0.000862641
0.000884214
0.000897633
0.000904086
0.000906304
0.000905475
0.000902869
0.000898708
0.000893776
0.000888382
0.000882742
0.000877006
0.00087128
0.000865641
0.00086015
0.000854883
0.000849845
0.000844907
0.000861192
0.000877713
0.000893976
0.000905306
0.000910774
0.000913709
0.000915562
0.000914058
0.000911435
0.000908028
0.000904103
0.000899858
0.000895439
0.000890956
0.000886489
0.000882094
0.000877812
0.000873539
0.000857329
0.000870057
0.000884166
0.000895803
0.000904314
0.000911112
0.000915806
0.000917641
0.000917963
0.000917174
0.00091558
0.000913419
0.000910867
0.00090806
0.000905104
0.000902076
0.000899034
0.000895885
0.000854357
0.000861249
0.000870374
0.000879982
0.000888769
0.000896482
0.000902856
0.000907563
0.000910835
0.000912943
0.000914115
0.000914549
0.00091441
0.00091383
0.00091292
0.000911766
0.000910445
0.000908877
0.000852299
0.000854198
0.000857996
0.000863259
0.000869283
0.000875564
0.000881734
0.000887456
0.000892549
0.000896927
0.000900599
0.000903611
0.000906029
0.000907923
0.000909361
0.00091041
0.000911138
0.00091148
0.000851228
0.000850443
0.00085105
0.00085307
0.000856287
0.000860432
0.000865221
0.000870358
0.000875581
0.00088068
0.000885505
0.000889959
0.000893987
0.000897566
0.000900697
0.000903397
0.000905701
0.000907631
0.000851526
0.000851387
0.000852709
0.000855421
0.000859222
0.000863799
0.000868846
0.000874064
0.000879212
0.000884118
0.000888669
0.000892798
0.000896476
0.000899698
0.000902477
0.000904837
0.000906799
0.000908437
0.0008536
0.000858528
0.000865676
0.0008737
0.000881666
0.000889102
0.000895649
0.000900991
0.00090517
0.000908305
0.000910541
0.000912026
0.000912893
0.000913256
0.000913213
0.000912842
0.000912205
0.000911435
0.000857232
0.000869163
0.000883407
0.000894621
0.000903417
0.000910476
0.000915303
0.000917431
0.000918037
0.000917505
0.000916133
0.000914157
0.000911758
0.000909071
0.000906199
0.000903215
0.000900177
0.000897196
0.000862713
0.000878567
0.000896231
0.000905271
0.000909797
0.000910848
0.000910559
0.000907768
0.000904014
0.000899634
0.000894837
0.000889825
0.000884731
0.00087964
0.000874613
0.000869689
0.000864903
0.000860339
0.000864653
0.00088297
0.000888724
0.000887964
0.0008859
0.000880621
0.000873129
0.000866327
0.000859253
0.000852124
0.000845202
0.000838454
0.000831872
0.000825476
0.000819284
0.00081331
0.000807573
0.000802125
0.000862604
0.000858982
0.000847789
0.000836199
0.000827766
0.000815893
0.000806364
0.000797318
0.0007886
0.000780171
0.000771964
0.000764023
0.000756389
0.000749085
0.000742111
0.000735462
0.000729141
0.00072319
0.000840181
0.00079821
0.000769609
0.00075375
0.000736729
0.000723751
0.000712653
0.000702411
0.000692821
0.000683766
0.000675155
0.000666992
0.000659254
0.000651908
0.00064493
0.000638305
0.00063203
0.000626155
0.000780034
0.000694811
0.000658716
0.000635228
0.000618289
0.000605916
0.000595184
0.000585396
0.000576278
0.000567716
0.000559628
0.000551985
0.00054476
0.000537925
0.000531462
0.000525346
0.000519562
0.000514178
0.000661796
0.000551315
0.00051347
0.000491444
0.000478684
0.000468284
0.000459124
0.000450747
0.000442953
0.000435633
0.000428729
0.000422212
0.00041606
0.000410251
0.000404766
0.000399584
0.00039469
0.000390169
0.000476676
0.000372809
0.000345026
0.000332024
0.000323123
0.000315639
0.000308886
0.000302642
0.000296815
0.000291351
0.000286214
0.000281383
0.000276839
0.000272562
0.00026854
0.000264748
0.000261176
0.000257908
0.000245014
0.000182903
0.000171338
0.000164927
0.000160114
0.000155933
0.000152127
0.000148621
0.000145376
0.000142364
0.000139563
0.000136955
0.000134526
0.00013226
0.000130146
0.000128168
0.000126314
0.000124643
5.50643e-05
3.28705e-05
2.82514e-05
2.60894e-05
2.46001e-05
2.33811e-05
2.23132e-05
2.13563e-05
2.04908e-05
1.97042e-05
1.89869e-05
1.83312e-05
1.77305e-05
1.71795e-05
1.66724e-05
1.62077e-05
1.57729e-05
1.53858e-05
1.12571e-08
3.7881e-07
7.59668e-07
1.09608e-06
1.36985e-06
1.61216e-06
1.86418e-06
2.12642e-06
2.41106e-06
2.72978e-06
3.09137e-06
3.50369e-06
3.97545e-06
4.51723e-06
5.1401e-06
5.85272e-06
6.65779e-06
7.55384e-06
8.53584e-06
9.59656e-06
1.07283e-05
1.19231e-05
1.31727e-05
1.44697e-05
1.58045e-05
1.71707e-05
1.85629e-05
1.99768e-05
2.14086e-05
2.28549e-05
2.4313e-05
2.57806e-05
2.72553e-05
2.87352e-05
3.02186e-05
3.17036e-05
3.31886e-05
3.4672e-05
3.61521e-05
3.76273e-05
3.90957e-05
4.05558e-05
4.20056e-05
4.34433e-05
4.4867e-05
4.62745e-05
4.76639e-05
4.90329e-05
5.03796e-05
5.17016e-05
5.29971e-05
5.42645e-05
5.55029e-05
5.67129e-05
5.78978e-05
5.90464e-05
6.01583e-05
6.12324e-05
6.22677e-05
6.32624e-05
6.42155e-05
6.51252e-05
6.59905e-05
6.681e-05
6.75828e-05
6.83077e-05
6.8984e-05
6.96107e-05
7.01875e-05
7.07137e-05
7.1189e-05
7.16132e-05
7.19861e-05
7.23077e-05
7.25784e-05
7.27981e-05
7.29674e-05
7.30866e-05
7.31564e-05
7.31771e-05
7.31493e-05
7.30662e-05
7.29438e-05
7.27783e-05
7.25678e-05
7.23134e-05
7.20167e-05
7.16792e-05
7.13021e-05
7.08868e-05
7.04347e-05
6.99472e-05
6.94257e-05
6.88716e-05
6.82864e-05
6.76714e-05
6.70282e-05
6.63582e-05
6.56628e-05
6.49436e-05
6.42019e-05
6.34391e-05
6.26566e-05
6.18557e-05
6.10378e-05
6.02042e-05
5.9356e-05
5.84943e-05
5.76219e-05
5.67397e-05
5.58474e-05
5.49467e-05
5.40389e-05
5.31253e-05
5.22068e-05
5.12846e-05
5.03597e-05
4.94331e-05
4.85057e-05
4.75786e-05
4.66525e-05
4.57285e-05
4.48071e-05
4.38893e-05
4.29757e-05
4.20671e-05
4.11643e-05
4.02679e-05
3.93786e-05
3.8497e-05
3.76237e-05
3.67598e-05
3.59053e-05
3.50609e-05
3.42266e-05
3.34032e-05
3.25909e-05
3.17902e-05
3.10013e-05
3.02248e-05
2.94609e-05
2.87098e-05
2.79718e-05
2.72471e-05
2.65359e-05
2.58382e-05
2.51544e-05
2.44845e-05
2.38286e-05
2.31869e-05
2.25592e-05
2.19457e-05
2.13462e-05
2.07607e-05
2.01894e-05
1.96321e-05
1.90887e-05
1.85593e-05
1.80439e-05
1.7542e-05
1.70533e-05
1.65778e-05
1.61153e-05
1.56655e-05
1.52284e-05
1.48034e-05
1.43904e-05
1.3989e-05
1.35987e-05
1.32192e-05
1.28497e-05
1.24902e-05
1.21414e-05
1.17994e-05
1.14677e-05
1.11323e-05
1.08236e-05
1.04615e-05
1.01955e-05
9.3228e-06
6.71746e-08
5.30982e-06
1.59739e-05
2.41768e-05
2.92663e-05
3.22376e-05
3.39524e-05
3.51972e-05
3.6365e-05
3.76177e-05
3.90041e-05
4.05411e-05
4.22197e-05
4.40534e-05
4.60856e-05
4.83832e-05
5.09285e-05
5.37155e-05
5.67298e-05
5.99454e-05
6.33526e-05
6.69694e-05
7.07798e-05
7.47653e-05
7.89073e-05
8.31873e-05
8.75873e-05
9.20905e-05
9.6681e-05
0.000101344
0.000106067
0.000110836
0.000115641
0.000120471
0.000125317
0.000130172
0.000135027
0.000139876
0.000144712
0.000149531
0.000154325
0.00015909
0.000163821
0.000168512
0.000173158
0.000177754
0.000182294
0.000186772
0.00019118
0.000195509
0.000199748
0.000203881
0.000207884
0.000211722
0.000215328
0.000218789
0.000222145
0.000225397
0.000228544
0.000231583
0.00023451
0.000237323
0.000240018
0.000242593
0.000245044
0.00024737
0.000249569
0.000251639
0.000253578
0.000255386
0.000257062
0.000258605
0.000260015
0.000261292
0.000262438
0.000263452
0.000264335
0.00026509
0.000265719
0.000266223
0.000266608
0.000266861
0.000266949
0.000266972
0.000266873
0.000266657
0.00026633
0.000265894
0.000265353
0.000264709
0.000263967
0.000263128
0.000262197
0.000261176
0.000260069
0.000258878
0.000257607
0.000256258
0.000254835
0.000253341
0.00025178
0.000250155
0.000248468
0.000246722
0.00024492
0.000243066
0.000241161
0.000239207
0.00023721
0.000235172
0.000233093
0.000230976
0.000228826
0.000226643
0.000224432
0.000222193
0.00021993
0.000217644
0.000215339
0.000213014
0.000210674
0.000208319
0.000205952
0.000203574
0.000201188
0.000198794
0.000196396
0.000193994
0.00019159
0.000189186
0.000186783
0.000184383
0.000181987
0.000179596
0.000177212
0.000174836
0.00017247
0.000170114
0.000167771
0.000165441
0.000163125
0.000160825
0.000158541
0.000156274
0.000154025
0.000151794
0.000149583
0.000147392
0.000145222
0.000143074
0.000140947
0.000138842
0.000136759
0.0001347
0.000132664
0.000130652
0.000128665
0.000126701
0.000124761
0.000122844
0.000120952
0.000119084
0.00011724
0.000115422
0.000113627
0.000111856
0.000110107
0.00010838
0.000106674
0.000104986
0.000103321
0.000101643
9.99254e-05
9.81871e-05
9.63971e-05
9.45571e-05
9.25988e-05
9.0239e-05
8.78826e-05
8.05434e-05
1.5916e-07
1.1021e-05
3.04407e-05
4.59894e-05
5.69755e-05
6.45339e-05
6.97806e-05
7.36574e-05
7.68424e-05
7.97673e-05
8.26799e-05
8.57134e-05
8.89795e-05
9.25517e-05
9.64565e-05
0.000100677
0.000105262
0.000110232
0.0001156
0.000121373
0.000127559
0.000134045
0.000140804
0.000147805
0.000155015
0.000162405
0.000169945
0.000177607
0.000185366
0.000193199
0.000201087
0.00020901
0.000216954
0.000224904
0.00023285
0.000240779
0.000248683
0.000256553
0.000264381
0.000272161
0.000279884
0.000287545
0.000295137
0.000302653
0.000310085
0.000317425
0.000324665
0.000331796
0.000338806
0.000345684
0.000352416
0.000358986
0.000365378
0.00037157
0.000377561
0.000383377
0.000389029
0.000394519
0.000399842
0.000404994
0.000409969
0.000414764
0.000419375
0.000423796
0.000428025
0.000432058
0.000435893
0.000439526
0.000442956
0.000446182
0.000449202
0.000452015
0.000454622
0.000457022
0.000459216
0.000461204
0.000462989
0.000464573
0.000465957
0.000467145
0.000468139
0.000468962
0.000469508
0.000469914
0.000470148
0.000470197
0.000470067
0.000469763
0.000469288
0.000468647
0.000467845
0.000466885
0.000465772
0.000464511
0.000463106
0.000461562
0.000459881
0.000458067
0.000456128
0.000454066
0.000451888
0.000449597
0.000447197
0.000444693
0.000442088
0.000439387
0.000436593
0.000433709
0.000430741
0.000427692
0.000424565
0.000421365
0.000418096
0.000414761
0.000411365
0.000407911
0.000404402
0.000400842
0.000397235
0.000393582
0.000389888
0.000386155
0.000382387
0.000378587
0.000374756
0.000370899
0.000367018
0.000363115
0.000359194
0.000355257
0.000351306
0.000347343
0.00034337
0.00033939
0.000335406
0.00033142
0.000327435
0.000323451
0.000319472
0.000315499
0.000311535
0.000307581
0.000303639
0.00029971
0.000295797
0.000291899
0.00028802
0.000284161
0.000280323
0.000276508
0.000272713
0.00026894
0.000265192
0.000261469
0.000257774
0.000254106
0.000250467
0.000246857
0.000243274
0.000239717
0.000236189
0.00023269
0.000229221
0.000225783
0.000222373
0.00021899
0.000215633
0.000212302
0.000208996
0.000205709
0.000202441
0.000199175
0.000195878
0.000192547
0.00018914
0.000185659
0.000182017
0.000177921
0.000173807
0.000163212
2.76744e-07
1.59432e-05
4.20493e-05
6.31015e-05
7.83394e-05
8.92477e-05
9.72372e-05
0.000103427
0.000108644
0.000113455
0.000118227
0.000123179
0.000128446
0.000134103
0.000140189
0.00014672
0.000153709
0.000161158
0.000169055
0.000177378
0.000186061
0.000195089
0.00020441
0.000213981
0.000223762
0.000233718
0.000243813
0.000254018
0.000264306
0.00027465
0.000285031
0.000295429
0.000305828
0.000316212
0.000326569
0.00033689
0.000347163
0.000357379
0.00036753
0.000377608
0.000387605
0.000397513
0.000407325
0.000417032
0.000426626
0.000436099
0.00044544
0.000454639
0.000463685
0.000472564
0.000481265
0.000489772
0.00049807
0.000506155
0.000514033
0.00052171
0.000529187
0.000536462
0.000543528
0.000550381
0.000557013
0.000563421
0.000569598
0.000575539
0.000581241
0.000586697
0.000591906
0.000596863
0.000601567
0.000606014
0.000610203
0.000614134
0.000617805
0.000621215
0.000624366
0.000627259
0.000629893
0.000632272
0.000634396
0.000636271
0.000637925
0.000639313
0.000640386
0.000641262
0.000641914
0.00064233
0.000642514
0.000642471
0.000642206
0.000641725
0.000641032
0.000640131
0.000639028
0.000637729
0.000636238
0.000634561
0.000632708
0.000630687
0.000628498
0.000626143
0.000623628
0.000620958
0.000618137
0.00061517
0.000612063
0.00060882
0.000605445
0.000601944
0.000598321
0.00059458
0.000590727
0.000586766
0.000582703
0.000578541
0.000574287
0.000569945
0.000565518
0.000561012
0.000556431
0.000551779
0.000547059
0.000542277
0.000537435
0.000532539
0.000527591
0.000522596
0.000517557
0.000512479
0.000507364
0.000502216
0.000497039
0.000491835
0.000486606
0.000481356
0.000476091
0.000470813
0.000465525
0.00046023
0.000454931
0.00044963
0.000444331
0.000439036
0.000433748
0.000428468
0.000423199
0.000417944
0.000412705
0.000407483
0.000402282
0.000397102
0.000391944
0.000386809
0.000381701
0.000376622
0.000371573
0.000366555
0.00036157
0.000356619
0.000351698
0.000346807
0.000341948
0.000337124
0.000332336
0.000327584
0.000322864
0.000318174
0.000313516
0.000308889
0.000304291
0.000299713
0.000295155
0.000290604
0.000286035
0.000281436
0.000276764
0.000272008
0.000267078
0.000261795
0.000256366
0.000244797
4.01321e-07
2.00548e-05
5.17154e-05
7.74319e-05
9.66211e-05
0.000110776
0.000121491
0.000130027
0.000137328
0.000144063
0.000150685
0.000157479
0.000164614
0.000172185
0.000180236
0.000188783
0.000197823
0.000207338
0.000217299
0.000227668
0.000238395
0.000249447
0.000260777
0.000272338
0.00028409
0.000295995
0.000308018
0.000320128
0.0003323
0.000344508
0.000356732
0.000368954
0.000381155
0.000393319
0.000405439
0.000417502
0.000429498
0.000441418
0.000453254
0.000464996
0.000476638
0.00048817
0.000499584
0.000510875
0.000522033
0.000533051
0.000543918
0.000554627
0.000565166
0.000575523
0.000585685
0.000595639
0.00060538
0.000614904
0.000624213
0.000633302
0.00064217
0.00065081
0.000659217
0.000667384
0.000675304
0.000682972
0.000690381
0.000697526
0.000704402
0.000711003
0.000717325
0.000723365
0.00072912
0.000734585
0.00073976
0.000744643
0.000749232
0.000753526
0.000757525
0.00076123
0.00076464
0.000767758
0.000770584
0.000773141
0.000775425
0.00077739
0.000779021
0.000780415
0.000781541
0.000782393
0.000782976
0.000783293
0.000783349
0.00078315
0.0007827
0.000782004
0.000781068
0.000779897
0.000778496
0.000776871
0.000775025
0.000772967
0.000770701
0.000768233
0.00076557
0.000762716
0.000759676
0.000756457
0.000753064
0.000749502
0.000745777
0.000741893
0.000737856
0.000733671
0.000729344
0.00072488
0.000720285
0.000715564
0.000710723
0.000705767
0.000700702
0.000695531
0.000690262
0.000684898
0.000679445
0.000673906
0.000668288
0.000662594
0.00065683
0.000651
0.000645109
0.00063916
0.000633159
0.00062711
0.000621016
0.000614884
0.00060872
0.000602531
0.000596314
0.000590074
0.000583813
0.000577535
0.000571244
0.000564943
0.000558635
0.000552324
0.000546013
0.000539706
0.000533404
0.000527112
0.000520831
0.000514565
0.000508316
0.000502087
0.000495879
0.000489692
0.000483533
0.000477402
0.000471302
0.000465234
0.0004592
0.000453205
0.000447247
0.000441324
0.000435439
0.000429595
0.000423791
0.000418028
0.0004123
0.000406606
0.000400948
0.000395326
0.000389737
0.000384173
0.00037863
0.000373103
0.000367569
0.000362014
0.000356402
0.000350712
0.000344865
0.000338718
0.000332643
0.000320287
5.171e-07
2.33485e-05
5.95144e-05
8.92971e-05
0.000112183
0.000129516
0.000142979
0.000153912
0.000163339
0.000172003
0.000180422
0.000188939
0.00019776
0.000207004
0.000216726
0.000226943
0.000237644
0.000248809
0.000260394
0.000272343
0.000284626
0.000297216
0.000310056
0.000323101
0.000336308
0.00034964
0.000363063
0.000376545
0.00039006
0.000403589
0.000417115
0.000430621
0.0004441
0.00045755
0.000470939
0.000484251
0.000497475
0.0005106
0.000523618
0.00053652
0.0005493
0.000561949
0.000574457
0.000586822
0.000599038
0.000611098
0.000622994
0.000634718
0.000646263
0.000657621
0.00066879
0.000679763
0.000690534
0.000701092
0.000711432
0.000721547
0.000731431
0.000741077
0.000750479
0.00075963
0.000768522
0.000777149
0.000785505
0.000793582
0.000801376
0.00080888
0.00081609
0.000823002
0.000829611
0.000835913
0.000841907
0.000847589
0.000852957
0.00085801
0.000862747
0.000867167
0.000871271
0.000875058
0.000878531
0.000881729
0.000884587
0.000887125
0.000889308
0.000891227
0.000892844
0.000894161
0.00089518
0.000895906
0.000896343
0.000896495
0.000896368
0.000895966
0.000895295
0.00089436
0.000893165
0.000891717
0.000890021
0.000888082
0.000885906
0.000883499
0.000880867
0.000878016
0.000874951
0.000871678
0.000868203
0.000864531
0.000860668
0.000856621
0.000852393
0.000847992
0.000843423
0.000838692
0.000833804
0.000828767
0.000823584
0.000818264
0.000812811
0.00080723
0.000801529
0.000795711
0.000789784
0.000783751
0.000777619
0.000771393
0.000765078
0.00075868
0.000752203
0.000745653
0.000739035
0.000732354
0.000725614
0.000718821
0.000711978
0.000705091
0.000698165
0.000691206
0.000684216
0.000677201
0.000670163
0.000663108
0.00065604
0.000648961
0.000641877
0.00063479
0.000627705
0.000620625
0.000613552
0.000606491
0.000599444
0.000592415
0.00058541
0.000578431
0.000571478
0.000564554
0.000557659
0.000550796
0.000543967
0.000537176
0.000530422
0.000523707
0.000517031
0.000510402
0.000503816
0.000497276
0.000490779
0.000484326
0.000477916
0.000471548
0.000465219
0.000458915
0.000452638
0.000446383
0.000440134
0.000433875
0.00042758
0.000421223
0.000414742
0.000408008
0.000401484
0.000389266
6.14686e-07
2.58417e-05
6.5532e-05
9.88577e-05
0.000125082
0.000145471
0.00016165
0.00017499
0.000186552
0.000197128
0.000207285
0.000217407
0.000227742
0.000238432
0.000249556
0.000261129
0.000273128
0.000285513
0.000298284
0.000311435
0.000324926
0.000338659
0.0003526
0.000366709
0.000380947
0.000395278
0.000409668
0.000424107
0.000438592
0.000453073
0.000467523
0.000481918
0.000496234
0.000510459
0.000524592
0.000538629
0.000552564
0.000566389
0.000580099
0.00059369
0.000607156
0.000620493
0.000633699
0.000646764
0.00065968
0.000672443
0.000685045
0.00069748
0.000709742
0.000721825
0.000733722
0.000745427
0.000756934
0.000768233
0.000779318
0.000790182
0.000800816
0.000811214
0.000821367
0.000831269
0.000840911
0.000850286
0.000859386
0.000868206
0.000876738
0.000884976
0.000892914
0.000900548
0.000907872
0.000914882
0.000921575
0.000927946
0.000933993
0.000939714
0.000945106
0.000950169
0.000954902
0.000959303
0.000963389
0.000967161
0.000970579
0.000973667
0.000976393
0.000978831
0.000980945
0.000982737
0.000984212
0.000985372
0.000986223
0.000986768
0.000987011
0.000986959
0.000986614
0.000985982
0.000985069
0.000983879
0.000982418
0.000980691
0.000978704
0.000976463
0.000973973
0.000971241
0.000968271
0.00096507
0.000961644
0.000957998
0.000954139
0.000950073
0.000945804
0.000941341
0.000936687
0.00093185
0.000926836
0.00092165
0.0009163
0.00091079
0.000905129
0.000899321
0.000893372
0.00088729
0.000881079
0.000874745
0.000868295
0.000861735
0.000855069
0.000848304
0.000841446
0.000834499
0.000827471
0.000820365
0.000813189
0.000805946
0.000798641
0.000791282
0.000783872
0.000776418
0.000768923
0.000761393
0.000753833
0.000746246
0.000738638
0.000731013
0.000723375
0.000715728
0.000708077
0.000700425
0.000692777
0.000685135
0.000677504
0.000669886
0.000662286
0.000654706
0.000647149
0.000639618
0.000632116
0.000624646
0.00061721
0.00060981
0.000602449
0.000595127
0.000587847
0.000580616
0.000573434
0.000566299
0.000559216
0.000552182
0.000545197
0.000538261
0.000531373
0.000524522
0.000517709
0.000510928
0.000504164
0.0004974
0.000490622
0.000483803
0.000476897
0.000469796
0.000462883
0.000451267
6.90001e-07
2.76095e-05
6.99237e-05
0.000106296
0.000135416
0.000158658
0.000177447
0.000193138
0.000206799
0.000219244
0.000231066
0.000242691
0.00025439
0.000266304
0.0002785
0.00029106
0.000304033
0.000317431
0.000331201
0.000345272
0.000359587
0.000374108
0.000388795
0.000403612
0.000418524
0.000433498
0.000448537
0.00046359
0.000478598
0.000493555
0.00050845
0.000523273
0.000538018
0.00055267
0.000567222
0.000581669
0.000596007
0.000610231
0.000624339
0.000638327
0.000652194
0.000665935
0.000679547
0.000693027
0.000706368
0.000719567
0.000732617
0.000745514
0.000758252
0.000770824
0.000783224
0.000795445
0.000807479
0.000819319
0.000830956
0.000842381
0.000853588
0.000864567
0.000875309
0.000885807
0.000896051
0.000906034
0.000915747
0.000925183
0.000934334
0.000943194
0.000951755
0.000960011
0.000967958
0.000975588
0.000982898
0.000989884
0.000996542
0.00100287
0.00100886
0.00101451
0.00101983
0.00102481
0.00102947
0.00103377
0.00103774
0.00104136
0.00104462
0.00104757
0.00105017
0.00105245
0.00105438
0.00105599
0.00105727
0.00105823
0.00105888
0.00105921
0.00105923
0.00105894
0.00105836
0.00105748
0.00105631
0.00105485
0.00105312
0.00105111
0.00104884
0.0010463
0.00104351
0.00104046
0.00103718
0.00103365
0.00102989
0.00102591
0.0010217
0.00101728
0.00101266
0.00100783
0.0010028
0.000997592
0.000992198
0.000986627
0.000980887
0.000974984
0.000968924
0.000962715
0.000956361
0.000949869
0.000943247
0.000936498
0.000929631
0.000922651
0.000915564
0.000908377
0.000901094
0.000893723
0.000886268
0.000878737
0.000871133
0.000863463
0.000855734
0.000847949
0.000840115
0.000832237
0.00082432
0.000816369
0.000808389
0.000800384
0.00079236
0.000784322
0.000776272
0.000768216
0.000760159
0.000752103
0.000744053
0.000736013
0.000727987
0.000719977
0.000711987
0.000704021
0.000696081
0.000688171
0.000680293
0.000672451
0.000664645
0.000656879
0.000649154
0.000641474
0.00063384
0.000626254
0.000618719
0.000611234
0.000603805
0.000596432
0.000589114
0.000581852
0.000574638
0.000567469
0.000560335
0.000553223
0.000546121
0.000539
0.000531826
0.000524517
0.000517329
0.000506422
7.426e-07
2.87534e-05
7.28947e-05
0.000111726
0.000143364
0.000169185
0.00019041
0.000208337
0.000224013
0.000238257
0.000251636
0.000264553
0.000277327
0.000290231
0.000303431
0.000316963
0.000330812
0.000344954
0.000359363
0.000374009
0.000388852
0.000403853
0.000418975
0.000434186
0.00044945
0.000464779
0.0004801
0.000495362
0.000510567
0.000525705
0.000540763
0.000555733
0.000570609
0.000585384
0.000600057
0.000614623
0.000629083
0.000643435
0.000657678
0.000671814
0.00068584
0.000699756
0.000713559
0.000727247
0.000740818
0.000754266
0.000767587
0.000780776
0.000793828
0.000806735
0.00081949
0.000832086
0.000844515
0.000856767
0.000868833
0.000880705
0.000892372
0.000903826
0.000915056
0.000926054
0.000936809
0.000947312
0.000957555
0.000967528
0.000977224
0.000986633
0.000995749
0.00100456
0.00101307
0.00102127
0.00102914
0.00103669
0.00104392
0.00105081
0.00105736
0.00106357
0.00106944
0.00107497
0.00108016
0.00108499
0.00108948
0.00109362
0.00109741
0.00110086
0.00110396
0.00110671
0.00110911
0.00111117
0.00111289
0.00111428
0.00111534
0.00111607
0.00111648
0.00111657
0.00111634
0.0011158
0.00111496
0.00111382
0.00111238
0.00111065
0.00110864
0.00110635
0.00110379
0.00110097
0.00109788
0.00109454
0.00109095
0.00108711
0.00108304
0.00107875
0.00107422
0.00106949
0.00106454
0.00105938
0.00105403
0.00104849
0.00104277
0.00103687
0.0010308
0.00102456
0.00101817
0.00101162
0.00100494
0.00099811
0.000991154
0.000984072
0.000976872
0.00096956
0.000962142
0.000954625
0.000947014
0.000939316
0.000931537
0.000923682
0.000915759
0.000907771
0.000899726
0.000891629
0.000883485
0.0008753
0.000867079
0.000858827
0.000850548
0.000842249
0.000833933
0.000825606
0.000817271
0.000808934
0.000800597
0.000792267
0.000783945
0.000775637
0.000767345
0.000759074
0.000750827
0.000742606
0.000734415
0.000726258
0.000718135
0.000710051
0.000702007
0.000694007
0.000686052
0.000678144
0.000670286
0.000662479
0.000654726
0.000647028
0.000639393
0.000631818
0.000624303
0.000616844
0.000609438
0.000602076
0.000594751
0.000587441
0.000580119
0.000572717
0.000565376
0.000555152
7.74236e-07
2.9371e-05
7.46405e-05
0.000115361
0.000149135
0.000177232
0.000200687
0.000220676
0.000238158
0.000253897
0.000268599
0.000282778
0.000296769
0.000310734
0.000324785
0.000338998
0.00035341
0.000368026
0.00038283
0.000397798
0.0004129
0.000428101
0.000443368
0.000458686
0.000474075
0.000489434
0.000504711
0.000519913
0.000535033
0.000550064
0.000565002
0.000579843
0.000594586
0.000609231
0.000623779
0.000638233
0.000652595
0.000666867
0.000681053
0.000695153
0.00070917
0.000723103
0.000736952
0.000750716
0.00076439
0.000777971
0.000791455
0.000804836
0.000818106
0.000831259
0.000844286
0.000857178
0.000869925
0.000882518
0.000894946
0.000907199
0.000919265
0.000931133
0.000942794
0.000954236
0.000965449
0.000976422
0.000987145
0.000997608
0.0010078
0.00101772
0.00102735
0.00103668
0.00104571
0.00105444
0.00106284
0.00107093
0.00107868
0.00108611
0.00109319
0.00109994
0.00110634
0.00111239
0.00111809
0.00112344
0.00112845
0.0011331
0.00113739
0.00114134
0.00114493
0.00114815
0.00115102
0.00115354
0.00115571
0.00115753
0.00115901
0.00116016
0.00116097
0.00116144
0.00116159
0.00116142
0.00116093
0.00116013
0.00115901
0.0011576
0.00115589
0.00115388
0.00115159
0.00114902
0.00114617
0.00114306
0.00113969
0.00113606
0.00113217
0.00112805
0.00112369
0.0011191
0.00111429
0.00110926
0.00110402
0.00109858
0.00109294
0.00108711
0.0010811
0.00107491
0.00106856
0.00106204
0.00105537
0.00104855
0.00104158
0.00103449
0.00102726
0.00101992
0.00101245
0.00100488
0.000997209
0.00098944
0.000981581
0.000973639
0.000965619
0.000957529
0.000949373
0.000941158
0.000932889
0.000924572
0.000916213
0.000907816
0.000899388
0.000890933
0.000882456
0.000873962
0.000865455
0.000856942
0.000848425
0.000839909
0.000831398
0.000822897
0.000814408
0.000805937
0.000797486
0.00078906
0.00078066
0.000772291
0.000763956
0.000755656
0.000747396
0.000739177
0.000731002
0.000722874
0.000714794
0.000706765
0.000698789
0.000690869
0.000683008
0.000675209
0.00066748
0.00065982
0.000652226
0.000644696
0.000637223
0.000629795
0.000622393
0.000614964
0.000607573
0.000597969
7.87162e-07
2.9567e-05
7.53404e-05
0.000117405
0.000152994
0.000182943
0.000208178
0.000229849
0.000248967
0.000266359
0.000282553
0.000297972
0.000312932
0.000327673
0.000342345
0.000357042
0.000371814
0.00038668
0.00040164
0.000416679
0.00043177
0.000446907
0.000462115
0.000477364
0.000492535
0.000507597
0.000522546
0.000537402
0.000552162
0.000566824
0.000581392
0.000595869
0.00061026
0.00062457
0.000638807
0.000652977
0.000667086
0.00068114
0.000695142
0.000709098
0.000723008
0.000736873
0.000750693
0.000764465
0.000778185
0.000791849
0.00080545
0.000818981
0.000832433
0.000845797
0.000859063
0.00087222
0.000885257
0.000898162
0.000910923
0.000923528
0.000935964
0.00094822
0.000960283
0.000972142
0.000983784
0.000995198
0.00100637
0.0010173
0.00102796
0.00103836
0.00104847
0.0010583
0.00106783
0.00107705
0.00108597
0.00109456
0.00110283
0.00111076
0.00111836
0.00112562
0.00113253
0.00113909
0.00114529
0.00115115
0.00115666
0.00116181
0.00116659
0.00117105
0.00117511
0.0011788
0.00118213
0.00118511
0.00118772
0.00118999
0.0011919
0.00119346
0.00119468
0.00119556
0.0011961
0.0011963
0.00119618
0.00119573
0.00119496
0.00119388
0.00119249
0.0011908
0.00118881
0.00118652
0.00118395
0.0011811
0.00117797
0.00117458
0.00117093
0.00116702
0.00116286
0.00115847
0.00115383
0.00114897
0.00114389
0.0011386
0.0011331
0.0011274
0.00112151
0.00111543
0.00110917
0.00110274
0.00109615
0.0010894
0.00108249
0.00107545
0.00106827
0.00106095
0.00105352
0.00104597
0.0010383
0.00103054
0.00102268
0.00101472
0.00100669
0.00099857
0.000990383
0.000982131
0.000973818
0.000965452
0.000957037
0.00094858
0.000940085
0.000931558
0.000923004