/*--------------------------------*- C++ -*----------------------------------*\
  =========                 |
  \\      /  F ield         | OpenFOAM: The Open Source CFD Toolbox
   \\    /   O peration     | Website:  https://openfoam.org
    \\  /    A nd           | Version:  10
     \\/     M anipulation  |
\*---------------------------------------------------------------------------*/
FoamFile
{
    format      ascii;
    class       volScalarField;
    location    "200";
    object      p;
}
// * * * * * * * * * * * * * * * * * * * * * * * * * * * * * * * * * * * * * //

dimensions      [0 2 -2 0 0 0 0];

internalField   nonuniform List<scalar> 
12225
(
-0.369708
-0.31032
-0.249253
-0.200962
-0.163746
-0.135857
-0.114642
-0.0983016
-0.0856679
-0.0758803
-0.0683214
-0.0625628
-0.0583192
-0.0554467
-0.0539629
-0.0543167
-0.0576676
-0.068648
-0.449471
-0.321046
-0.256075
-0.20704
-0.169162
-0.140733
-0.119012
-0.102233
-0.0892262
-0.0791228
-0.0712991
-0.0653217
-0.0609024
-0.0578976
-0.0563193
-0.0565677
-0.0593143
-0.0672152
-0.50512
-0.336123
-0.268161
-0.217396
-0.178277
-0.148924
-0.126355
-0.10884
-0.0952062
-0.0845678
-0.076291
-0.0699328
-0.065195
-0.0619208
-0.0600829
-0.0599218
-0.0615054
-0.0650766
-0.521373
-0.349172
-0.280025
-0.227492
-0.187275
-0.157119
-0.133808
-0.115635
-0.101423
-0.0902787
-0.0815614
-0.0748176
-0.0697336
-0.0661217
-0.0638798
-0.0630342
-0.0632003
-0.0637887
-0.513862
-0.358326
-0.289116
-0.235589
-0.194752
-0.1641
-0.140297
-0.121659
-0.107015
-0.0954764
-0.0863986
-0.0793202
-0.0739092
-0.069938
-0.0672235
-0.0656163
-0.0645091
-0.0633918
-0.49278
-0.362876
-0.295059
-0.241742
-0.20079
-0.169938
-0.145871
-0.126935
-0.111986
-0.100145
-0.0907733
-0.0834022
-0.0776815
-0.0733453
-0.0701436
-0.0678176
-0.0656914
-0.0635801
-0.462908
-0.362154
-0.297644
-0.245896
-0.205463
-0.174696
-0.150587
-0.131509
-0.116364
-0.104303
-0.0946929
-0.0870642
-0.0810511
-0.0763569
-0.0726872
-0.0697293
-0.066828
-0.0641469
-0.427634
-0.355878
-0.296689
-0.247722
-0.208664
-0.178307
-0.154395
-0.135343
-0.120119
-0.107919
-0.0981282
-0.0902795
-0.0839985
-0.0789684
-0.0748732
-0.0713866
-0.0679242
-0.064955
-0.389683
-0.344232
-0.292225
-0.246959
-0.210165
-0.180696
-0.157232
-0.13839
-0.123216
-0.110966
-0.101056
-0.0930304
-0.0865146
-0.0811846
-0.076722
-0.0728137
-0.0689684
-0.0658904
-0.351041
-0.327804
-0.284445
-0.243603
-0.209722
-0.181769
-0.159039
-0.140607
-0.125624
-0.113422
-0.103462
-0.0953093
-0.0886008
-0.0830178
-0.0782547
-0.0740269
-0.0699374
-0.0668571
-0.312935
-0.307586
-0.273671
-0.237849
-0.207319
-0.181442
-0.159781
-0.141955
-0.127311
-0.115266
-0.105333
-0.0971118
-0.0902615
-0.0844802
-0.0794863
-0.0750307
-0.0707938
-0.0677833
-0.27907
-0.286638
-0.261554
-0.230695
-0.203515
-0.179887
-0.159521
-0.142417
-0.128213
-0.116404
-0.106564
-0.0983362
-0.0914058
-0.0854954
-0.0803517
-0.0757591
-0.071442
-0.0685474
-0.248048
-0.264237
-0.247861
-0.222036
-0.198299
-0.177127
-0.158319
-0.142136
-0.128499
-0.117019
-0.107342
-0.0991626
-0.0922022
-0.0862134
-0.0809737
-0.0762962
-0.0719923
-0.0691014
-0.215754
-0.238261
-0.230939
-0.210782
-0.190939
-0.172647
-0.155823
-0.140931
-0.128093
-0.117098
-0.107691
-0.0996333
-0.0926979
-0.086677
-0.0813843
-0.0766662
-0.0724183
-0.0694822
-0.183252
-0.210175
-0.211406
-0.197213
-0.181413
-0.166281
-0.151818
-0.138539
-0.126733
-0.116392
-0.107383
-0.0995437
-0.0927088
-0.0867207
-0.0814341
-0.0767303
-0.0725585
-0.0695649
-0.15252
-0.182315
-0.190902
-0.182456
-0.170484
-0.158484
-0.14649
-0.134929
-0.124277
-0.11471
-0.106203
-0.0986702
-0.092012
-0.0861231
-0.0809002
-0.0762569
-0.0721693
-0.0690924
-0.126745
-0.158196
-0.172288
-0.168733
-0.160033
-0.15065
-0.140756
-0.130683
-0.121044
-0.112169
-0.104126
-0.0968918
-0.0904173
-0.084641
-0.0794929
-0.0749094
-0.0708665
-0.0676086
-0.111662
-0.143159
-0.160019
-0.159416
-0.152691
-0.144819
-0.13617
-0.126992
-0.117937
-0.109443
-0.101648
-0.0945702
-0.0881917
-0.082477
-0.0773761
-0.0728358
-0.0688153
-0.0653444
-0.11732
-0.146992
-0.162564
-0.161
-0.153349
-0.144677
-0.1354
-0.125705
-0.1162
-0.107313
-0.0991766
-0.0917982
-0.0851518
-0.0791927
-0.0738611
-0.0690902
-0.0647979
-0.060799
-0.14101
-0.16998
-0.180848
-0.17425
-0.162909
-0.151411
-0.139887
-0.128525
-0.11783
-0.108083
-0.0993184
-0.091484
-0.0845114
-0.0783241
-0.0728416
-0.0679833
-0.0636482
-0.059562
-0.180069
-0.20462
-0.206861
-0.19279
-0.176195
-0.160596
-0.145773
-0.131949
-0.119485
-0.108457
-0.098756
-0.0902423
-0.0827806
-0.0762407
-0.0705034
-0.0654594
-0.0609847
-0.0567526
-0.229444
-0.245341
-0.235423
-0.212232
-0.189374
-0.169029
-0.150619
-0.13426
-0.120086
-0.107894
-0.0973997
-0.0883566
-0.0805513
-0.0737967
-0.0679342
-0.0628304
-0.0583505
-0.0541751
-0.286035
-0.286917
-0.261387
-0.228516
-0.19928
-0.174253
-0.152697
-0.134382
-0.118965
-0.105973
-0.0949753
-0.0856227
-0.0776344
-0.0707814
-0.0648771
-0.0597697
-0.0553192
-0.0512241
-0.34696
-0.323574
-0.280442
-0.239035
-0.204349
-0.175543
-0.151829
-0.132314
-0.116168
-0.102741
-0.0915051
-0.0820391
-0.0740171
-0.0671815
-0.0613266
-0.0562873
-0.0519236
-0.0479618
-0.408012
-0.349982
-0.290746
-0.2431
-0.204307
-0.173187
-0.148363
-0.128261
-0.111815
-0.098267
-0.0870216
-0.0776171
-0.0696987
-0.0629892
-0.0572706
-0.0523697
-0.0481486
-0.0443644
-0.463509
-0.363123
-0.292148
-0.240913
-0.199853
-0.167827
-0.142669
-0.122481
-0.1061
-0.0927042
-0.0816567
-0.0724711
-0.0647768
-0.0582874
-0.0527798
-0.0480777
-0.044046
-0.0404741
-0.504713
-0.362636
-0.285352
-0.233278
-0.191913
-0.159969
-0.135065
-0.115212
-0.0992041
-0.0861898
-0.0755145
-0.0666823
-0.0593184
-0.0531348
-0.0479085
-0.043463
-0.0396664
-0.0363417
-0.514099
-0.349917
-0.27187
-0.221043
-0.1808
-0.149687
-0.125548
-0.106429
-0.0910984
-0.0787006
-0.0685827
-0.060252
-0.053338
-0.0475578
-0.042693
-0.0385711
-0.0350636
-0.032028
-0.465839
-0.328778
-0.255532
-0.206507
-0.168037
-0.138185
-0.115132
-0.097006
-0.0825526
-0.0709234
-0.0614809
-0.0537438
-0.0473525
-0.042034
-0.0375777
-0.0338183
-0.0306307
-0.0278905
-0.372254
-0.310928
-0.244784
-0.196772
-0.159411
-0.13038
-0.108051
-0.0905885
-0.0767191
-0.0655993
-0.0566028
-0.0492571
-0.0432101
-0.0381954
-0.0340086
-0.0304876
-0.0275107
-0.0249384
-0.0772896
-0.077287
-0.0773984
-0.0776265
-0.0779234
-0.0782534
-0.0786054
-0.0789786
-0.0793734
-0.0797942
-0.0802475
-0.0807398
-0.0812762
-0.081862
-0.0825034
-0.0832072
-0.0839802
-0.0848282
-0.0857559
-0.0867652
-0.0878557
-0.0890241
-0.0902639
-0.0915647
-0.0929131
-0.0942926
-0.0956843
-0.0970678
-0.098421
-0.0997215
-0.100946
-0.102074
-0.103081
-0.103949
-0.104657
-0.105186
-0.105521
-0.105644
-0.105543
-0.105205
-0.104618
-0.103771
-0.102657
-0.101267
-0.0995966
-0.0976391
-0.0953916
-0.0928516
-0.0900183
-0.0868922
-0.0834765
-0.0797776
-0.0758063
-0.0715692
-0.0670525
-0.0622443
-0.0571571
-0.0518073
-0.0462086
-0.0403726
-0.0343115
-0.0280368
-0.0215611
-0.0148967
-0.00805704
-0.00105521
0.00609471
0.0133791
0.0207836
0.0282942
0.0358966
0.0435768
0.0513205
0.0591144
0.0669445
0.0747978
0.0826612
0.0905223
0.098369
0.10619
0.113973
0.121709
0.129386
0.136996
0.144529
0.151977
0.159331
0.166585
0.173732
0.180765
0.187678
0.194466
0.201125
0.207649
0.214036
0.220282
0.226384
0.232339
0.238147
0.243803
0.249309
0.254662
0.259861
0.264907
0.269799
0.274538
0.279123
0.283556
0.287843
0.291985
0.295979
0.299824
0.303521
0.307073
0.310483
0.313753
0.316884
0.31988
0.322743
0.325476
0.328081
0.33056
0.332918
0.335157
0.337279
0.339287
0.341185
0.342974
0.344659
0.346241
0.347725
0.349112
0.350406
0.351609
0.352726
0.353757
0.354708
0.355579
0.356374
0.357096
0.357748
0.358331
0.358849
0.359305
0.3597
0.360037
0.360319
0.360547
0.360725
0.360854
0.360935
0.360973
0.360967
0.36092
0.360834
0.360711
0.360552
0.360359
0.360133
0.359877
0.359592
0.35928
0.358942
0.358581
0.358199
0.357799
0.357385
0.356959
0.356529
0.356101
0.355687
0.355299
0.354951
0.354669
0.354495
0.354487
0.354772
0.355432
0.357151
0.359051
-0.0769745
-0.0770336
-0.0771687
-0.0773773
-0.077619
-0.0778601
-0.078095
-0.0783365
-0.0786031
-0.078908
-0.0792558
-0.0796476
-0.0800904
-0.0805926
-0.0811619
-0.0818061
-0.0825326
-0.0833477
-0.084256
-0.0852598
-0.086359
-0.0875489
-0.0888213
-0.0901639
-0.0915613
-0.0929956
-0.0944466
-0.0958925
-0.0973107
-0.0986783
-0.0999721
-0.10117
-0.102251
-0.103193
-0.103979
-0.10459
-0.10501
-0.105223
-0.105216
-0.104975
-0.104491
-0.103753
-0.102751
-0.10148
-0.0999313
-0.0981013
-0.0959856
-0.0935815
-0.0908875
-0.0879028
-0.0846277
-0.0810621
-0.0772045
-0.0730513
-0.0686132
-0.0639088
-0.0589458
-0.053728
-0.0482626
-0.0425587
-0.0366267
-0.0304775
-0.0241229
-0.0175751
-0.0108468
-0.00395115
0.00309833
0.010288
0.0176038
0.0250318
0.0325578
0.0401679
0.0478481
0.0555845
0.0633637
0.0711722
0.0789972
0.0868259
0.0946462
0.102446
0.110216
0.117942
0.125616
0.133227
0.140767
0.148226
0.155597
0.162871
0.170043
0.177104
0.18405
0.190875
0.197573
0.20414
0.210573
0.216867
0.22302
0.22903
0.234892
0.240607
0.246172
0.251586
0.256848
0.261959
0.266917
0.271723
0.276378
0.280881
0.285228
0.289414
0.293447
0.297333
0.301073
0.304669
0.308124
0.311438
0.314616
0.317658
0.320568
0.323348
0.326001
0.328528
0.330934
0.333221
0.335391
0.337447
0.339393
0.34123
0.342962
0.344591
0.346122
0.347555
0.348895
0.350144
0.351306
0.352382
0.353376
0.35429
0.355128
0.355892
0.356585
0.357208
0.357766
0.35826
0.358693
0.359068
0.359386
0.35965
0.359862
0.360024
0.360139
0.360208
0.360233
0.360217
0.36016
0.360065
0.359934
0.359768
0.359568
0.359338
0.359077
0.358788
0.358474
0.358135
0.357775
0.357396
0.357002
0.356597
0.356186
0.355778
0.355382
0.35501
0.354681
0.354419
0.354265
0.354274
0.354563
0.355192
0.356758
0.35828
-0.0759662
-0.0761805
-0.0765095
-0.0768354
-0.0770717
-0.0772255
-0.0773387
-0.0774509
-0.0775911
-0.0777796
-0.0780301
-0.0783519
-0.0787531
-0.0792407
-0.0798207
-0.080498
-0.081276
-0.082156
-0.0831378
-0.084218
-0.0853906
-0.0866458
-0.087972
-0.0893552
-0.0907796
-0.0922278
-0.0936807
-0.0951189
-0.0965221
-0.0978701
-0.0991427
-0.10032
-0.101383
-0.102314
-0.103094
-0.103708
-0.104139
-0.104374
-0.104398
-0.104201
-0.103769
-0.103094
-0.102166
-0.100977
-0.0995207
-0.0977912
-0.095784
-0.0934956
-0.0909238
-0.0880671
-0.0849254
-0.0814985
-0.077786
-0.0737882
-0.0695112
-0.0649645
-0.0601554
-0.0550907
-0.0497781
-0.0442265
-0.0384457
-0.032446
-0.0262386
-0.0198352
-0.0132481
-0.00649001
0.000426057
0.00748671
0.0146783
0.0219872
0.0293994
0.0369012
0.0444789
0.0521187
0.0598072
0.0675313
0.0752779
0.0830345
0.0907889
0.0985293
0.106245
0.113924
0.121556
0.129131
0.136641
0.144076
0.151428
0.158689
0.165852
0.172911
0.179858
0.186688
0.193396
0.199978
0.206429
0.212745
0.218924
0.224961
0.230856
0.236606
0.242208
0.247662
0.252967
0.258122
0.263126
0.267979
0.272681
0.277232
0.281632
0.285884
0.28999
0.29395
0.297764
0.301435
0.304965
0.308354
0.311606
0.314723
0.317707
0.320561
0.323286
0.325887
0.328364
0.330722
0.332963
0.335089
0.337103
0.339008
0.340807
0.342503
0.344098
0.345596
0.346999
0.34831
0.349532
0.350668
0.351721
0.352693
0.353587
0.354405
0.355152
0.355828
0.356437
0.356981
0.357462
0.357884
0.358248
0.358557
0.358812
0.359017
0.359172
0.359281
0.359344
0.359365
0.359344
0.359284
0.359186
0.359052
0.358884
0.358683
0.358452
0.358191
0.357904
0.357591
0.357257
0.356902
0.356532
0.35615
0.355763
0.355376
0.355
0.354648
0.354337
0.354091
0.35395
0.353959
0.354222
0.354753
0.356028
0.356893
-0.0744123
-0.0747975
-0.0754055
-0.0759681
-0.0763376
-0.0765634
-0.0767191
-0.076857
-0.0770149
-0.0772212
-0.077496
-0.0778534
-0.078303
-0.0788513
-0.0795027
-0.0802594
-0.0811214
-0.0820864
-0.0831499
-0.0843048
-0.0855422
-0.0868512
-0.0882193
-0.0896324
-0.0910753
-0.0925316
-0.0939839
-0.0954144
-0.0968049
-0.0981371
-0.0993926
-0.100553
-0.101602
-0.102521
-0.103295
-0.103907
-0.104343
-0.104588
-0.104631
-0.104457
-0.104056
-0.103419
-0.102535
-0.101396
-0.099996
-0.0983278
-0.0963865
-0.0941683
-0.09167
-0.0888898
-0.0858267
-0.0824804
-0.0788518
-0.0749432
-0.0707598
-0.0663082
-0.061595
-0.0566268
-0.0514112
-0.0459567
-0.0402727
-0.0343692
-0.0282569
-0.0219473
-0.0154524
-0.00878439
-0.00195626
0.00501891
0.0121277
0.0193567
0.0266922
0.0341205
0.0416281
0.0492015
0.0568272
0.0644923
0.0721839
0.0798893
0.0875965
0.0952938
0.10297
0.110614
0.118215
0.125764
0.133251
0.140667
0.148004
0.155254
0.162409
0.169463
0.17641
0.183243
0.189957
0.196549
0.203012
0.209344
0.21554
0.221599
0.227517
0.233292
0.238922
0.244406
0.249742
0.25493
0.25997
0.26486
0.269602
0.274195
0.278641
0.282942
0.287098
0.291109
0.294976
0.2987
0.302283
0.305727
0.309033
0.312205
0.315244
0.318152
0.320933
0.323588
0.326121
0.328533
0.330828
0.333008
0.335076
0.337035
0.338887
0.340635
0.342283
0.343832
0.345286
0.346647
0.347918
0.349103
0.350204
0.351223
0.352163
0.353028
0.353819
0.354539
0.355191
0.355777
0.3563
0.356762
0.357165
0.357512
0.357805
0.358046
0.358237
0.35838
0.358478
0.358531
0.358542
0.358512
0.358444
0.358339
0.358199
0.358025
0.35782
0.357584
0.357321
0.357032
0.35672
0.356387
0.356038
0.355676
0.355307
0.354937
0.354576
0.354236
0.353933
0.35369
0.353539
0.353519
0.353707
0.35408
0.354991
0.35522
-0.0727636
-0.0733105
-0.0742336
-0.0750954
-0.0756793
-0.076067
-0.0763576
-0.076614
-0.07688
-0.0771888
-0.0775645
-0.078023
-0.0785748
-0.079226
-0.0799793
-0.0808349
-0.0817907
-0.0828424
-0.0839837
-0.0852064
-0.0865003
-0.0878541
-0.0892549
-0.0906889
-0.0921416
-0.0935976
-0.0950409
-0.0964553
-0.0978242
-0.0991308
-0.100358
-0.101491
-0.102511
-0.103404
-0.104153
-0.104745
-0.105165
-0.105399
-0.105434
-0.105259
-0.104863
-0.104234
-0.103365
-0.102245
-0.100868
-0.0992278
-0.0973183
-0.0951353
-0.0926756
-0.089937
-0.0869183
-0.0836194
-0.0800413
-0.0761864
-0.0720588
-0.0676641
-0.0630081
-0.0580976
-0.0529401
-0.047544
-0.0419185
-0.0360733
-0.0300191
-0.0237672
-0.0173292
-0.0107176
-0.00394481
0.00297607
0.0100319
0.0172092
0.0244945
0.0318744
0.0393353
0.0468639
0.0544469
0.0620713
0.0697244
0.0773937
0.0850671
0.0927332
0.100381
0.107998
0.115576
0.123103
0.130572
0.137972
0.145296
0.152535
0.159682
0.166731
0.173675
0.180508
0.187225
0.19382
0.200291
0.206632
0.21284
0.218913
0.224847
0.230639
0.236289
0.241794
0.247154
0.252367
0.257433
0.262352
0.267123
0.271748
0.276226
0.280559
0.284748
0.288793
0.292695
0.296454
0.300074
0.303555
0.3069
0.31011
0.313188
0.316136
0.318957
0.321652
0.324226
0.326679
0.329015
0.331236
0.333345
0.335344
0.337237
0.339026
0.340714
0.342303
0.343797
0.345198
0.346509
0.347732
0.348871
0.349928
0.350906
0.351808
0.352635
0.353391
0.354079
0.3547
0.355257
0.355752
0.356188
0.356568
0.356892
0.357164
0.357385
0.357557
0.357683
0.357764
0.357802
0.357799
0.357756
0.357676
0.35756
0.357409
0.357226
0.357012
0.35677
0.356501
0.356208
0.355893
0.35556
0.355214
0.354858
0.3545
0.354148
0.353813
0.353508
0.353254
0.353077
0.353003
0.353089
0.353277
0.353829
0.353538
-0.071456
-0.0721367
-0.0733374
-0.0744785
-0.0752879
-0.075865
-0.0763238
-0.076734
-0.0771433
-0.0775878
-0.0780936
-0.0786778
-0.079351
-0.0801185
-0.0809821
-0.0819405
-0.0829902
-0.0841257
-0.0853396
-0.086623
-0.0879656
-0.0893559
-0.0907818
-0.09223
-0.0936869
-0.0951381
-0.096569
-0.0979645
-0.0993092
-0.100588
-0.101785
-0.102885
-0.103872
-0.104733
-0.105453
-0.106016
-0.106411
-0.106622
-0.106639
-0.106448
-0.106039
-0.105402
-0.104527
-0.103405
-0.102029
-0.100392
-0.0984884
-0.0963139
-0.093865
-0.0911394
-0.0881358
-0.084854
-0.0812952
-0.0774616
-0.073357
-0.0689863
-0.0643553
-0.0594705
-0.0543396
-0.0489707
-0.0433731
-0.0375566
-0.0315317
-0.0253095
-0.0189018
-0.0123208
-0.00557892
0.00131085
0.00833544
0.0154816
0.0227358
0.0300849
0.0375153
0.0450139
0.0525675
0.0601632
0.0677883
0.0754305
0.083078
0.0907194
0.0983432
0.105938
0.113494
0.121002
0.128453
0.135837
0.143146
0.150372
0.157509
0.164548
0.171484
0.178311
0.185023
0.191617
0.198087
0.20443
0.210641
0.216718
0.222658
0.228459
0.234119
0.239636
0.245009
0.250236
0.255318
0.260255
0.265045
0.269689
0.274188
0.278543
0.282755
0.286823
0.290749
0.294534
0.29818
0.301689
0.305062
0.308302
0.31141
0.314388
0.31724
0.319967
0.322572
0.325057
0.327426
0.32968
0.331821
0.333854
0.33578
0.337602
0.339323
0.340946
0.342473
0.343907
0.345251
0.346507
0.347679
0.348768
0.349778
0.350711
0.351569
0.352356
0.353074
0.353725
0.354311
0.354836
0.3553
0.355708
0.356059
0.356358
0.356605
0.356803
0.356954
0.357059
0.357121
0.357141
0.357121
0.357063
0.356968
0.356838
0.356674
0.35648
0.356255
0.356004
0.355726
0.355427
0.355108
0.354773
0.354428
0.354077
0.353728
0.353391
0.353078
0.352803
0.352587
0.352445
0.352412
0.352411
0.352638
0.351927
-0.0707871
-0.071564
-0.0729572
-0.0743103
-0.0753151
-0.076073
-0.0767011
-0.0772701
-0.0778287
-0.0784138
-0.079052
-0.0797608
-0.0805509
-0.0814274
-0.0823916
-0.0834415
-0.0845727
-0.085779
-0.0870526
-0.0883848
-0.0897655
-0.0911834
-0.0926268
-0.0940835
-0.0955405
-0.0969844
-0.0984014
-0.0997775
-0.101098
-0.102349
-0.103517
-0.104585
-0.10554
-0.106369
-0.107056
-0.107588
-0.107952
-0.108135
-0.108124
-0.107908
-0.107475
-0.106816
-0.10592
-0.104779
-0.103385
-0.101732
-0.0998141
-0.0976262
-0.0951652
-0.0924286
-0.0894154
-0.0861254
-0.0825599
-0.0787211
-0.0746128
-0.0702397
-0.0656073
-0.0607225
-0.0555927
-0.0502262
-0.0446323
-0.0388209
-0.0328024
-0.0265881
-0.0201898
-0.0136194
-0.00688953
-1.30368e-05
0.00699705
0.0141275
0.0213652
0.0286966
0.0361086
0.043588
0.0511218
0.0586973
0.0663019
0.0739234
0.0815502
0.0891709
0.0967739
0.104348
0.111885
0.119374
0.126806
0.134172
0.141465
0.148675
0.155796
0.162822
0.169746
0.176562
0.183265
0.189849
0.196312
0.202648
0.208855
0.21493
0.220868
0.226669
0.23233
0.237849
0.243226
0.24846
0.253548
0.258493
0.263292
0.267948
0.272459
0.276827
0.281052
0.285135
0.289078
0.292881
0.296545
0.300074
0.303467
0.306728
0.309858
0.31286
0.315735
0.318486
0.321116
0.323627
0.326021
0.328301
0.33047
0.332529
0.334482
0.336332
0.33808
0.339731
0.341285
0.342747
0.344119
0.345403
0.346602
0.347718
0.348756
0.349716
0.350601
0.351415
0.352159
0.352836
0.353448
0.353998
0.354487
0.354919
0.355295
0.355617
0.355888
0.356109
0.356282
0.356409
0.356492
0.356533
0.356533
0.356494
0.356418
0.356307
0.356161
0.355983
0.355775
0.355538
0.355275
0.354989
0.354681
0.354355
0.354016
0.353669
0.35332
0.352976
0.352646
0.352343
0.352079
0.35186
0.351703
0.351518
0.351457
0.350407
-0.0708904
-0.0717096
-0.0731962
-0.074675
-0.0758201
-0.0767233
-0.0774959
-0.0782047
-0.0788962
-0.0796065
-0.0803615
-0.081179
-0.0820693
-0.0830373
-0.0840838
-0.0852066
-0.0864014
-0.0876621
-0.0889809
-0.0903488
-0.0917562
-0.0931926
-0.0946468
-0.0961072
-0.0975613
-0.0989964
-0.100399
-0.101757
-0.103056
-0.104282
-0.105422
-0.106461
-0.107386
-0.108183
-0.108838
-0.109337
-0.109668
-0.109818
-0.109774
-0.109524
-0.109058
-0.108366
-0.107437
-0.106264
-0.104838
-0.103153
-0.101203
-0.0989839
-0.0964922
-0.0937257
-0.0906832
-0.087365
-0.0837723
-0.0799077
-0.0757748
-0.0713785
-0.0667244
-0.0618194
-0.0566712
-0.0512881
-0.0456796
-0.0398555
-0.0338265
-0.027604
-0.0211995
-0.0146252
-0.00789377
-0.00101784
0.00598954
0.0131153
0.0203461
0.0276689
0.0350705
0.0425379
0.0500581
0.0576187
0.0652072
0.0728117
0.0804206
0.0880223
0.0956056
0.10316
0.110677
0.118146
0.125558
0.132905
0.140178
0.147369
0.154473
0.161481
0.168387
0.175187
0.181874
0.188445
0.194895
0.201219
0.207415
0.21348
0.21941
0.225204
0.230859
0.236374
0.241748
0.246979
0.252068
0.257013
0.261815
0.266474
0.27099
0.275363
0.279596
0.283687
0.287639
0.291453
0.295129
0.298671
0.302078
0.305354
0.3085
0.311518
0.314411
0.31718
0.319829
0.322359
0.324774
0.327074
0.329264
0.331345
0.33332
0.335192
0.336963
0.338636
0.340214
0.341699
0.343093
0.344401
0.345624
0.346764
0.347824
0.348808
0.349717
0.350553
0.35132
0.35202
0.352655
0.353227
0.353739
0.354193
0.35459
0.354934
0.355225
0.355466
0.355659
0.355806
0.355909
0.355968
0.355987
0.355966
0.355907
0.355812
0.355682
0.35552
0.355326
0.355103
0.354852
0.354576
0.354277
0.353959
0.353624
0.353277
0.352923
0.352568
0.352218
0.35188
0.351562
0.35126
0.35098
0.350621
0.350311
0.348985
-0.0717454
-0.0725564
-0.0740438
-0.0755611
-0.0767825
-0.077782
-0.0786596
-0.0794748
-0.0802703
-0.0810799
-0.0819279
-0.0828304
-0.0837973
-0.0848337
-0.0859408
-0.0871165
-0.0883561
-0.0896537
-0.0910021
-0.0923931
-0.0938171
-0.0952643
-0.0967235
-0.0981836
-0.0996324
-0.101058
-0.102447
-0.103788
-0.105067
-0.106271
-0.107386
-0.108398
-0.109294
-0.11006
-0.110683
-0.111148
-0.111444
-0.111557
-0.111474
-0.111186
-0.110679
-0.109945
-0.108974
-0.107757
-0.106287
-0.104557
-0.102562
-0.100297
-0.0977601
-0.0949481
-0.0918608
-0.0884984
-0.0848625
-0.0809559
-0.0767825
-0.0723473
-0.0676562
-0.0627163
-0.0575353
-0.0521219
-0.0464857
-0.0406366
-0.0345855
-0.0283436
-0.0219229
-0.0153353
-0.0085935
-0.0017102
0.00530165
0.012429
0.0196587
0.0269777
0.0343731
0.0418318
0.0493414
0.0568892
0.0644631
0.0720513
0.0796423
0.0872246
0.0947876
0.102321
0.109816
0.117263
0.124653
0.131977
0.139227
0.146396
0.153476
0.160462
0.167347
0.174125
0.180793
0.187344
0.193775
0.200082
0.206261
0.21231
0.218225
0.224006
0.229649
0.235154
0.240518
0.245742
0.250824
0.255764
0.260562
0.265218
0.269733
0.274107
0.27834
0.282434
0.28639
0.290208
0.293891
0.29744
0.300856
0.304141
0.307297
0.310327
0.313232
0.316015
0.318678
0.321223
0.323653
0.32597
0.328176
0.330275
0.332268
0.334158
0.335948
0.33764
0.339237
0.340742
0.342157
0.343484
0.344727
0.345888
0.346969
0.347973
0.348902
0.349759
0.350547
0.351267
0.351922
0.352514
0.353046
0.353519
0.353936
0.354298
0.354609
0.354868
0.35508
0.355245
0.355365
0.355441
0.355476
0.355472
0.355428
0.355349
0.355233
0.355085
0.354904
0.354692
0.354452
0.354186
0.353895
0.353581
0.353248
0.3529
0.352538
0.352168
0.351794
0.351418
0.351043
0.350658
0.350257
0.349737
0.349211
0.347664
-0.073239
-0.0740004
-0.0754123
-0.076891
-0.0781256
-0.0791697
-0.0801083
-0.0809924
-0.0818585
-0.0827362
-0.0836475
-0.0846081
-0.0856268
-0.0867084
-0.0878536
-0.0890612
-0.0903274
-0.0916466
-0.0930118
-0.0944149
-0.0958468
-0.0972975
-0.0987563
-0.100212
-0.101653
-0.103068
-0.104445
-0.10577
-0.107031
-0.108214
-0.109305
-0.110292
-0.11116
-0.111896
-0.112485
-0.112915
-0.113173
-0.113245
-0.113121
-0.112787
-0.112233
-0.11145
-0.110427
-0.109157
-0.107632
-0.105846
-0.103794
-0.101472
-0.0988771
-0.0960075
-0.0928629
-0.0894441
-0.085753
-0.0817926
-0.0775672
-0.0730821
-0.0683436
-0.0633587
-0.0581357
-0.0526833
-0.0470112
-0.0411297
-0.0350497
-0.0287825
-0.02234
-0.0157344
-0.00897818
-0.00208406
0.00493507
0.0120663
0.0192965
0.0266129
0.0340025
0.0414527
0.0489509
0.056485
0.064043
0.0716132
0.0791841
0.0867447
0.0942847
0.101794
0.109264
0.116685
0.124049
0.131346
0.138568
0.145709
0.152763
0.159721
0.166579
0.173331
0.179972
0.186498
0.192905
0.199188
0.205345
0.211372
0.217268
0.223029
0.228655
0.234143
0.239493
0.244703
0.249773
0.254703
0.259492
0.26414
0.268648
0.273017
0.277246
0.281338
0.285293
0.289112
0.292796
0.296347
0.299767
0.303057
0.30622
0.309257
0.312171
0.314963
0.317637
0.320193
0.322635
0.324964
0.327184
0.329296
0.331304
0.333209
0.335014
0.336723
0.338336
0.339858
0.34129
0.342635
0.343896
0.345074
0.346174
0.347196
0.348143
0.349019
0.349825
0.350563
0.351237
0.351847
0.352397
0.352888
0.353323
0.353703
0.354031
0.354308
0.354536
0.354717
0.354853
0.354946
0.354997
0.355007
0.354978
0.354912
0.354811
0.354675
0.354505
0.354305
0.354074
0.353816
0.35353
0.35322
0.352888
0.352535
0.352164
0.351777
0.351376
0.35096
0.350526
0.350058
0.349544
0.348878
0.348165
0.34644
-0.0752104
-0.0758924
-0.0771721
-0.07855
-0.0797433
-0.0807839
-0.0817395
-0.0826521
-0.083553
-0.0844671
-0.0854133
-0.0864047
-0.0874501
-0.0885542
-0.0897183
-0.0909412
-0.092219
-0.0935467
-0.0949172
-0.0963228
-0.0977541
-0.0992014
-0.100654
-0.102102
-0.103534
-0.104938
-0.106301
-0.107611
-0.108854
-0.110017
-0.111086
-0.112047
-0.112886
-0.113589
-0.114144
-0.114535
-0.114751
-0.114778
-0.114605
-0.114219
-0.113611
-0.11277
-0.111687
-0.110355
-0.108766
-0.106915
-0.104796
-0.102407
-0.0997446
-0.0968082
-0.0935975
-0.0901137
-0.0863592
-0.0823374
-0.0780531
-0.0735116
-0.0687197
-0.0636848
-0.0584151
-0.0529199
-0.0472088
-0.0412923
-0.0351814
-0.0288876
-0.0224226
-0.0157987
-0.00902842
-0.00212429
0.00490085
0.0120342
0.0192628
0.0265741
0.0339553
0.0413938
0.0488775
0.0563943
0.0639324
0.0714803
0.0790268
0.0865615
0.0940742
0.101555
0.108995
0.116385
0.123716
0.13098
0.13817
0.145278
0.152297
0.159222
0.166047
0.172767
0.179377
0.185871
0.192248
0.198502
0.204631
0.210631
0.216501
0.222238
0.227841
0.233308
0.238638
0.243829
0.248882
0.253796
0.25857
0.263206
0.267703
0.272062
0.276284
0.280369
0.284318
0.288133
0.291815
0.295365
0.298785
0.302077
0.305243
0.308284
0.311203
0.314001
0.316681
0.319246
0.321696
0.324035
0.326266
0.328389
0.330409
0.332327
0.334146
0.335868
0.337496
0.339032
0.34048
0.34184
0.343116
0.344311
0.345427
0.346465
0.34743
0.348322
0.349145
0.3499
0.35059
0.351218
0.351784
0.352292
0.352743
0.35314
0.353484
0.353777
0.354021
0.354218
0.354369
0.354477
0.354542
0.354567
0.354552
0.354499
0.35441
0.354286
0.354127
0.353937
0.353715
0.353463
0.353182
0.352875
0.352541
0.352183
0.351801
0.351395
0.350966
0.350508
0.350016
0.349468
0.348848
0.34805
0.347176
0.345309
-0.0774881
-0.078068
-0.0791741
-0.0804034
-0.0815088
-0.0825026
-0.0834362
-0.0843422
-0.0852445
-0.0861639
-0.0871168
-0.0881153
-0.0891668
-0.0902754
-0.0914422
-0.0926657
-0.0939424
-0.095267
-0.0966325
-0.098031
-0.0994538
-0.100892
-0.102334
-0.103772
-0.105192
-0.106583
-0.107932
-0.109225
-0.110448
-0.111589
-0.112632
-0.113565
-0.114371
-0.115038
-0.115552
-0.115899
-0.116067
-0.116041
-0.115812
-0.115367
-0.114695
-0.113788
-0.112637
-0.111234
-0.109573
-0.107648
-0.105456
-0.102992
-0.100256
-0.0972471
-0.093965
-0.0904117
-0.08659
-0.0825038
-0.0781581
-0.0735587
-0.0687125
-0.0636273
-0.0583116
-0.0527747
-0.0470265
-0.0410775
-0.0349386
-0.0286213
-0.0221376
-0.0154996
-0.0087196
-0.00181018
0.00521602
0.0123464
0.0195682
0.026869
0.0342361
0.0416573
0.0491204
0.0566137
0.0641256
0.0716445
0.0791601
0.0866623
0.0941406
0.101585
0.108989
0.116341
0.123633
0.130857
0.138007
0.145075
0.152054
0.15894
0.165725
0.172407
0.178978
0.185436
0.191776
0.197995
0.20409
0.210058
0.215897
0.221605
0.227179
0.232619
0.237924
0.243092
0.248123
0.253017
0.257773
0.262391
0.266873
0.271218
0.275428
0.279502
0.283443
0.28725
0.290926
0.294472
0.297889
0.301179
0.304344
0.307387
0.310308
0.313109
0.315794
0.318364
0.320821
0.323168
0.325406
0.327539
0.329569
0.331497
0.333327
0.335062
0.336702
0.338252
0.339712
0.341087
0.342377
0.343587
0.344717
0.345771
0.346751
0.347658
0.348497
0.349268
0.349974
0.350617
0.3512
0.351723
0.35219
0.352602
0.352962
0.35327
0.353529
0.353741
0.353907
0.354029
0.354108
0.354146
0.354145
0.354105
0.354027
0.353914
0.353766
0.353585
0.35337
0.353125
0.352848
0.352542
0.352206
0.351842
0.351447
0.351023
0.350564
0.350065
0.349516
0.348893
0.348174
0.347258
0.346245
0.344263
-0.0798953
-0.0803627
-0.0812724
-0.08232
-0.0833004
-0.0842108
-0.0850862
-0.0859514
-0.0868253
-0.0877246
-0.0886621
-0.0896476
-0.0906872
-0.0917844
-0.0929394
-0.0941505
-0.0954137
-0.096724
-0.0980746
-0.0994581
-0.100866
-0.10229
-0.103719
-0.105142
-0.106547
-0.107921
-0.10925
-0.110521
-0.11172
-0.112832
-0.113843
-0.114739
-0.115505
-0.116127
-0.116592
-0.116885
-0.116994
-0.116907
-0.116612
-0.116098
-0.115355
-0.114373
-0.113146
-0.111666
-0.109926
-0.107923
-0.105652
-0.103111
-0.100299
-0.0972161
-0.0938623
-0.09024
-0.0863525
-0.0822041
-0.0778
-0.0731464
-0.0682504
-0.0631199
-0.0577637
-0.052191
-0.0464118
-0.0404368
-0.0342769
-0.0279436
-0.0214487
-0.0148044
-0.00802276
-0.00111631
0.00590251
0.0130212
0.0202273
0.0275084
0.0348523
0.042247
0.0496804
0.057141
0.0646172
0.0720985
0.0795749
0.0870359
0.0944713
0.101872
0.10923
0.116536
0.123781
0.130958
0.13806
0.14508
0.152012
0.158851
0.165591
0.172227
0.178754
0.185168
0.191466
0.197645
0.2037
0.20963
0.215432
0.221105
0.226646
0.232055
0.237329
0.242469
0.247474
0.252343
0.257077
0.261674
0.266137
0.270465
0.274659
0.278719
0.282647
0.286444
0.290111
0.293649
0.297061
0.300346
0.303509
0.30655
0.30947
0.312273
0.31496
0.317533
0.319995
0.322347
0.324592
0.326732
0.32877
0.330708
0.332548
0.334292
0.335944
0.337505
0.338978
0.340365
0.341669
0.342892
0.344036
0.345104
0.346098
0.347021
0.347874
0.34866
0.349381
0.350039
0.350637
0.351176
0.351658
0.352085
0.352459
0.352782
0.353056
0.353282
0.353463
0.353598
0.353691
0.353742
0.353753
0.353725
0.35366
0.353557
0.353419
0.353246
0.35304
0.352799
0.352526
0.352221
0.351882
0.351511
0.351104
0.350659
0.350171
0.349632
0.349028
0.348335
0.347526
0.346507
0.345372
0.343299
-0.0822789
-0.0826317
-0.0833366
-0.0841833
-0.085012
-0.0858097
-0.0865982
-0.0873951
-0.0882143
-0.0890688
-0.0899686
-0.0909213
-0.0919311
-0.0930003
-0.0941285
-0.0953134
-0.0965513
-0.0978372
-0.0991648
-0.100527
-0.101914
-0.103317
-0.104725
-0.106126
-0.107506
-0.108852
-0.110152
-0.111389
-0.112551
-0.113623
-0.114589
-0.115436
-0.116149
-0.116715
-0.117118
-0.117346
-0.117387
-0.117228
-0.116859
-0.116268
-0.115446
-0.114385
-0.113077
-0.111515
-0.109695
-0.107612
-0.105264
-0.102647
-0.0997622
-0.0966083
-0.0931873
-0.0895015
-0.0855547
-0.0813512
-0.0768967
-0.0721975
-0.067261
-0.0620951
-0.0567086
-0.051111
-0.0453123
-0.039323
-0.0331541
-0.0268169
-0.0203232
-0.0136849
-0.00691406
-2.29643e-05
0.00697609
0.0140709
0.0212492
0.0284987
0.0358076
0.043164
0.0505561
0.0579724
0.0654024
0.072836
0.0802628
0.0876721
0.0950545
0.102402
0.109706
0.116956
0.124144
0.131265
0.138311
0.145276
0.152154
0.158938
0.165625
0.172208
0.178684
0.185049
0.191298
0.197429
0.20344
0.209326
0.215086
0.220719
0.226222
0.231594
0.236835
0.241942
0.246916
0.251757
0.256464
0.261037
0.265477
0.269784
0.273959
0.278002
0.281915
0.285699
0.289354
0.292882
0.296285
0.299565
0.302722
0.305759
0.308678
0.31148