/*--------------------------------*- C++ -*----------------------------------*\
  =========                 |
  \\      /  F ield         | OpenFOAM: The Open Source CFD Toolbox
   \\    /   O peration     | Website:  https://openfoam.org
    \\  /    A nd           | Version:  10
     \\/     M anipulation  |
\*---------------------------------------------------------------------------*/
FoamFile
{
    format      ascii;
    class       surfaceScalarField;
    location    "200";
    object      phi;
}
// * * * * * * * * * * * * * * * * * * * * * * * * * * * * * * * * * * * * * //

dimensions      [0 3 -1 0 0 0 0];

internalField   nonuniform List<scalar> 
24170
(
3.54197e-08
-1.95108e-08
5.52486e-08
-1.9829e-08
7.16436e-08
-1.63951e-08
8.5639e-08
-1.39954e-08
9.78896e-08
-1.22507e-08
1.08295e-07
-1.04058e-08
1.17108e-07
-8.81241e-09
1.24603e-07
-7.49509e-09
1.31018e-07
-6.41498e-09
1.36555e-07
-5.53712e-09
1.41384e-07
-4.82963e-09
1.45656e-07
-4.27138e-09
1.49512e-07
-3.85688e-09
1.53119e-07
-3.60682e-09
1.56717e-07
-3.59791e-09
1.60838e-07
-4.12084e-09
1.66797e-07
-5.95891e-09
-1.41859e-08
1.80982e-07
7.5959e-08
-4.37794e-08
9.99407e-08
-4.38107e-08
1.20432e-07
-3.68866e-08
1.38347e-07
-3.19104e-08
1.53856e-07
-2.77596e-08
1.67298e-07
-2.38485e-08
1.78965e-07
-2.04786e-08
1.89128e-07
-1.76584e-08
1.98033e-07
-1.53204e-08
2.05891e-07
-1.33954e-08
2.12884e-07
-1.18225e-08
2.19174e-07
-1.05609e-08
2.24914e-07
-9.59772e-09
2.30275e-07
-8.96775e-09
2.35475e-07
-8.79785e-09
2.40833e-07
-9.47873e-09
2.46823e-07
-1.19488e-08
-1.86893e-08
2.51326e-07
1.13649e-07
-6.33375e-08
1.37395e-07
-6.75568e-08
1.59156e-07
-5.86475e-08
1.78176e-07
-5.09301e-08
1.94671e-07
-4.42544e-08
2.091e-07
-3.82773e-08
2.21758e-07
-3.31371e-08
2.32902e-07
-2.88023e-08
2.42761e-07
-2.51796e-08
2.51536e-07
-2.21706e-08
2.59403e-07
-1.96897e-08
2.6652e-07
-1.76778e-08
2.73035e-07
-1.61126e-08
2.79097e-07
-1.50298e-08
2.84863e-07
-1.45639e-08
2.90455e-07
-1.50708e-08
2.95724e-07
-1.72171e-08
-2.18563e-08
2.98891e-07
1.57509e-07
-7.69127e-08
1.7854e-07
-8.85883e-08
1.99728e-07
-7.98348e-08
2.18741e-07
-6.99435e-08
2.35458e-07
-6.09719e-08
2.50229e-07
-5.30481e-08
2.63308e-07
-4.62163e-08
2.74921e-07
-4.04146e-08
2.85271e-07
-3.55302e-08
2.94543e-07
-3.14426e-08
3.029e-07
-2.80467e-08
3.10489e-07
-2.5267e-08
3.17445e-07
-2.30687e-08
3.23891e-07
-2.14756e-08
3.29924e-07
-2.0597e-08
3.35542e-07
-2.06887e-08
3.40433e-07
-2.21082e-08
-2.4928e-08
3.43505e-07
2.09615e-07
-8.44334e-08
2.26754e-07
-1.05727e-07
2.46032e-07
-9.91128e-08
2.64171e-07
-8.80827e-08
2.80506e-07
-7.73071e-08
2.95141e-07
-6.76829e-08
3.08237e-07
-5.9312e-08
3.19965e-07
-5.21433e-08
3.30497e-07
-4.60615e-08
3.39988e-07
-4.09344e-08
3.48585e-07
-3.66433e-08
3.56417e-07
-3.30994e-08
3.63602e-07
-3.02529e-08
3.70232e-07
-2.81066e-08
3.76361e-07
-2.67257e-08
3.81926e-07
-2.62533e-08
3.86625e-07
-2.68073e-08
-2.81223e-08
3.89819e-07
2.71486e-07
-8.64318e-08
2.83987e-07
-1.18228e-07
3.00298e-07
-1.15424e-07
3.16741e-07
-1.04526e-07
3.32075e-07
-9.26411e-08
3.4609e-07
-8.16975e-08
3.58802e-07
-7.2024e-08
3.70306e-07
-6.36472e-08
3.80721e-07
-5.6477e-08
3.90171e-07
-5.03845e-08
3.98774e-07
-4.52463e-08
4.06639e-07
-4.09639e-08
4.13859e-07
-3.74727e-08
4.20501e-07
-3.47494e-08
4.26586e-07
-3.281e-08
4.32031e-07
-3.16981e-08
4.36596e-07
-3.1373e-08
-3.14617e-08
4.39936e-07
3.44475e-07
-8.38505e-08
3.51894e-07
-1.25648e-07
3.64373e-07
-1.27903e-07
3.78304e-07
-1.18457e-07
3.91981e-07
-1.06318e-07
4.04845e-07
-9.45619e-08
4.16734e-07
-8.39131e-08
4.2764e-07
-7.45528e-08
4.37616e-07
-6.64533e-08
4.46741e-07
-5.95091e-08
4.55098e-07
-5.36036e-08
4.62769e-07
-4.86347e-08
4.69821e-07
-4.45251e-08
4.76298e-07
-4.12258e-08
4.82195e-07
-3.87074e-08
4.87435e-07
-3.69379e-08
4.91848e-07
-3.57867e-08
-3.48875e-08
4.95274e-07
4.29735e-07
-7.78479e-08
4.31981e-07
-1.27893e-07
4.39975e-07
-1.35896e-07
4.5061e-07
-1.29092e-07
4.61947e-07
-1.17655e-07
4.73081e-07
-1.05696e-07
4.83657e-07
-9.44885e-08
4.93544e-07
-8.444e-08
5.02716e-07
-7.56249e-08
5.11193e-07
-6.79866e-08
5.19019e-07
-6.14295e-08
5.26241e-07
-5.58565e-08
5.32898e-07
-5.11824e-08
5.39009e-07
-4.73374e-08
5.44558e-07
-4.42565e-08
5.49478e-07
-4.18576e-08
5.53663e-07
-3.99713e-08
-3.82841e-08
5.5706e-07
5.2822e-07
-6.96307e-08
5.25576e-07
-1.25249e-07
5.28708e-07
-1.39029e-07
5.35373e-07
-1.35757e-07
5.43682e-07
-1.25964e-07
5.52474e-07
-1.14488e-07
5.612e-07
-1.03214e-07
5.696e-07
-9.28399e-08
5.77555e-07
-8.35796e-08
5.85019e-07
-7.54514e-08
5.91988e-07
-6.83979e-08
5.98469e-07
-6.23373e-08
6.04471e-07
-5.71847e-08
6.09991e-07
-5.28575e-08
6.15002e-07
-4.92676e-08
6.19451e-07
-4.63062e-08
6.23278e-07
-4.3798e-08
-4.14931e-08
6.26486e-07
6.40667e-07
-6.03258e-08
6.33754e-07
-1.18337e-07
6.31991e-07
-1.37265e-07
6.34212e-07
-1.37978e-07
6.38855e-07
-1.30607e-07
6.44692e-07
-1.20325e-07
6.51005e-07
-1.09528e-07
6.57411e-07
-9.92458e-08
6.63695e-07
-8.98632e-08
6.69739e-07
-8.14955e-08
6.75482e-07
-7.41414e-08
6.80892e-07
-6.7747e-08
6.85944e-07
-6.22372e-08
6.90613e-07
-5.75264e-08
6.94863e-07
-5.35173e-08
6.98649e-07
-5.00926e-08
7.01943e-07
-4.70912e-08
-4.43192e-08
7.04769e-07
7.6755e-07
-5.08704e-08
7.5727e-07
-1.08056e-07
7.50913e-07
-1.30908e-07
7.48493e-07
-1.35558e-07
7.48998e-07
-1.31112e-07
7.51322e-07
-1.22649e-07
7.5467e-07
-1.12876e-07
7.58558e-07
-1.03134e-07
7.62686e-07
-9.39908e-08
7.66866e-07
-8.56753e-08
7.70981e-07
-7.82564e-08
7.74953e-07
-7.17198e-08
7.78726e-07
-6.60104e-08
7.82251e-07
-6.10508e-08
7.8548e-07
-5.67464e-08
7.88373e-07
-5.29857e-08
7.90914e-07
-4.96319e-08
-4.65353e-08
7.9313e-07
7.57502e-07
-4.29914e-08
7.47127e-07
-9.76812e-08
7.38683e-07
-1.22464e-07
7.33148e-07
-1.30024e-07
7.3021e-07
-1.28174e-07
7.29143e-07
-1.21582e-07
7.29313e-07
-1.13046e-07
7.30275e-07
-1.04096e-07
7.31728e-07
-9.54435e-08
7.3347e-07
-8.74174e-08
7.35363e-07
-8.01499e-08
7.3731e-07
-7.36667e-08
7.39236e-07
-6.79368e-08
7.41083e-07
-6.28972e-08
7.428e-07
-5.84636e-08
7.44352e-07
-5.45373e-08
7.45716e-07
-5.09963e-08
-4.77555e-08
7.46936e-07
1.00243e-06
-3.48716e-08
9.89297e-07
-8.45458e-08
9.76837e-07
-1.10005e-07
9.66879e-07
-1.20065e-07
9.59692e-07
-1.20988e-07
9.54827e-07
-1.16716e-07
9.51702e-07
-1.0992e-07
9.49821e-07
-1.02216e-07
9.48822e-07
-9.44438e-08
9.48438e-07
-8.70342e-08
9.48478e-07
-8.01893e-08
9.48795e-07
-7.39843e-08
9.4928e-07
-6.84214e-08
9.49843e-07
-6.34606e-08
9.50417e-07
-5.90368e-08
9.5095e-07
-5.50703e-08
9.5142e-07
-5.14663e-08
-4.81767e-08
9.51841e-07
1.3276e-06
-2.69778e-08
1.31219e-06
-6.91331e-08
1.29555e-06
-9.33723e-08
1.28037e-06
-1.04884e-07
1.26765e-06
-1.08265e-07
1.25744e-06
-1.06501e-07
1.24938e-06
-1.01863e-07
1.24305e-06
-9.58892e-08
1.23808e-06
-8.94684e-08
1.23415e-06
-8.3103e-08
1.23101e-06
-7.70583e-08
1.22849e-06
-7.14605e-08
1.22642e-06
-6.63513e-08
1.22468e-06
-6.17221e-08
1.22318e-06
-5.75347e-08
1.22185e-06
-5.37349e-08
1.22064e-06
-5.02602e-08
-4.70845e-08
1.21955e-06
1.75355e-06
-1.95972e-08
1.73674e-06
-5.23258e-08
1.71645e-06
-7.30767e-08
1.6959e-06
-8.43398e-08
1.67682e-06
-8.918e-08
1.65991e-06
-8.95937e-08
1.64527e-06
-8.72223e-08
1.6327e-06
-8.33188e-08
1.62192e-06
-7.869e-08
1.61265e-06
-7.38331e-08
1.60463e-06
-6.90396e-08
1.59764e-06
-6.44709e-08
1.5915e-06
-6.02042e-08
1.58604e-06
-5.62635e-08
1.58114e-06
-5.26409e-08
1.57672e-06
-4.93115e-08
1.5727e-06
-4.62438e-08
-4.34302e-08
1.56905e-06
2.29919e-06
-1.27212e-08
2.28174e-06
-3.48776e-08
2.2587e-06
-5.004e-08
2.23344e-06
-5.90764e-08
2.20808e-06
-6.38149e-08
2.18392e-06
-6.54421e-08
2.16161e-06
-6.49087e-08
2.14132e-06
-6.30315e-08
2.12303e-06
-6.03973e-08
2.10659e-06
-5.73917e-08
2.09181e-06
-5.42619e-08
2.0785e-06
-5.11615e-08
2.06648e-06
-4.81786e-08
2.05557e-06
-4.5357e-08
2.04564e-06
-4.27125e-08
2.03658e-06
-4.02449e-08
2.02828e-06
-3.79483e-08
-3.58322e-08
2.02068e-06
2.97233e-06
-5.96334e-09
2.95431e-06
-1.68565e-08
2.92907e-06
-2.48056e-08
2.89988e-06
-2.98849e-08
2.86899e-06
-3.29265e-08
2.83802e-06
-3.44644e-08
2.80798e-06
-3.48772e-08
2.77948e-06
-3.45271e-08
2.75278e-06
-3.37012e-08
2.72799e-06
-3.25946e-08
2.70506e-06
-3.1339e-08
2.68392e-06
-3.0023e-08
2.66445e-06
-2.87036e-08
2.64651e-06
-2.74146e-08
2.62997e-06
-2.61741e-08
2.61472e-06
-2.49918e-08
2.60064e-06
-2.38743e-08
-2.28414e-08
2.58765e-06
3.74866e-06
1.51271e-09
3.72912e-06
2.68466e-09
3.70103e-06
3.28862e-09
3.66765e-06
3.49126e-09
3.63139e-06
3.34004e-09
3.59398e-06
2.94275e-09
3.5567e-06
2.40287e-09
3.52039e-06
1.78288e-09
3.48557e-06
1.12099e-09
3.45253e-06
4.46017e-10
3.42141e-06
-2.20259e-10
3.39225e-06
-8.62567e-10
3.36501e-06
-1.47063e-09
3.33964e-06
-2.03785e-09
3.31602e-06
-2.56056e-09
3.29407e-06
-3.03847e-09
3.27367e-06
-3.47553e-09
-3.88668e-09
3.25472e-06
4.53043e-06
8.58485e-09
4.50778e-06
2.53416e-08
4.47409e-06
3.69715e-08
4.43377e-06
4.38148e-08
4.38989e-06
4.72163e-08
4.34468e-06
4.81596e-08
4.2997e-06
4.73815e-08
4.25599e-06
4.54915e-08
4.21417e-06
4.29456e-08
4.17456e-06
4.00562e-08
4.1373e-06
3.70316e-08
4.10243e-06
3.40095e-08
4.06988e-06
3.10778e-08
4.03956e-06
2.82896e-08
4.01132e-06
2.56737e-08
3.98504e-06
2.32425e-08
3.96057e-06
2.09955e-08
1.89136e-08
3.93777e-06
3.11439e-06
1.81185e-08
3.09191e-06
4.78142e-08
3.06209e-06
6.67932e-08
3.02893e-06
7.69772e-08
2.99503e-06
8.11164e-08
2.96203e-06
8.1155e-08
2.93086e-06
7.85597e-08
2.9019e-06
7.44473e-08
2.87527e-06
6.95746e-08
2.85091e-06
6.44217e-08
2.82866e-06
5.92798e-08
2.80835e-06
5.43205e-08
2.78979e-06
4.96386e-08
2.7728e-06
4.52792e-08
2.75721e-06
4.1257e-08
2.74289e-06
3.75681e-08
2.72969e-06
3.4196e-08
3.1114e-08
2.71749e-06
2.47121e-06
2.86762e-08
2.44726e-06
7.17611e-08
2.41836e-06
9.56909e-08
2.38911e-06
1.06227e-07
2.36176e-06
1.08474e-07
2.33724e-06
1.05671e-07
2.31574e-06
1.00061e-07
2.29703e-06
9.3157e-08
2.28076e-06
8.58436e-08
2.26657e-06
7.86112e-08
2.25413e-06
7.17183e-08
2.24316e-06
6.5291e-08
2.23342e-06
5.93774e-08
2.22472e-06
5.39809e-08
2.2169e-06
4.9081e-08
2.20982e-06
4.46454e-08
2.20338e-06
4.06356e-08
3.70086e-08
2.19749e-06
1.9037e-06
4.16989e-08
1.87972e-06
9.57356e-08
1.85542e-06
1.19988e-07
1.83441e-06
1.27241e-07
1.8175e-06
1.25382e-07
1.80441e-06
1.1876e-07
1.79445e-06
1.10026e-07
1.78688e-06
1.00729e-07
1.7811e-06
9.16232e-08
1.77666e-06
8.30534e-08
1.77321e-06
7.51644e-08
1.77051e-06
6.79943e-08
1.76836e-06
6.15247e-08
1.76663e-06
5.57107e-08
1.76521e-06
5.04962e-08
1.76404e-06
4.58227e-08
1.76304e-06
4.16335e-08
3.7874e-08
1.76217e-06
1.42686e-06
5.67277e-08
1.40667e-06
1.15926e-07
1.39144e-06
1.3522e-07
1.38198e-06
1.36698e-07
1.37728e-06
1.30088e-07
1.37595e-06
1.2008e-07
1.37681e-06
1.09173e-07
1.37898e-06
9.85529e-08
1.38193e-06
8.86781e-08
1.38528e-06
7.97001e-08
1.38881e-06
7.16374e-08
1.39236e-06
6.44438e-08
1.39584e-06
5.8046e-08
1.39919e-06
5.23621e-08
1.40237e-06
4.73119e-08
1.40537e-06
4.28201e-08
1.40819e-06
3.88206e-08
3.52543e-08
1.41081e-06
1.0409e-06
7.15661e-08
1.0291e-06
1.27731e-07
1.02586e-06
1.38458e-07
1.02876e-06
1.33801e-07
1.03542e-06
1.23426e-07
1.04399e-06
1.11512e-07
1.05329e-06
9.98718e-08
1.06269e-06
8.91491e-08
1.07186e-06
7.95155e-08
1.08059e-06
7.09641e-08
1.08881e-06
6.34177e-08
1.09648e-06
5.67743e-08
1.1036e-06
5.09285e-08
1.11018e-06
4.57801e-08
1.11625e-06
4.12383e-08
1.12185e-06
3.7223e-08
1.12701e-06
3.36666e-08
3.05124e-08
1.13175e-06
7.38431e-07
8.2762e-08
7.38351e-07
1.27811e-07
7.4752e-07
1.2929e-07
7.61218e-07
1.20103e-07
7.76627e-07
1.08017e-07
7.9214e-07
9.59991e-08
8.07024e-07
8.49877e-08
8.20984e-07
7.51892e-08
8.33916e-07
6.65832e-08
8.45811e-07
5.90692e-08
8.56708e-07
5.25212e-08
8.66668e-07
4.68138e-08
8.75764e-07
4.18321e-08
8.8407e-07
3.74744e-08
8.91656e-07
3.36521e-08
8.9859e-07
3.02893e-08
9.04933e-07
2.73234e-08
2.47065e-08
9.10739e-07
5.08364e-07
8.65171e-08
5.20974e-07
1.15201e-07
5.40616e-07
1.09647e-07
5.62078e-07
9.86418e-08
5.82987e-07
8.71078e-08
6.02481e-07
7.65051e-08
6.20345e-07
6.7123e-08
6.36589e-07
5.89459e-08
6.51301e-07
5.18705e-08
6.64606e-07
4.57645e-08
6.76633e-07
4.04942e-08
6.8751e-07
3.59366e-08
6.97357e-07
3.19851e-08
7.06283e-07
2.85483e-08
7.14387e-07
2.55491e-08
7.21754e-07
2.29214e-08
7.28466e-07
2.06118e-08
1.85863e-08
7.34586e-07
3.38161e-07
7.97773e-08
3.61897e-07
9.14656e-08
3.88597e-07
8.29467e-08
4.14375e-07
7.28637e-08
4.37842e-07
6.36405e-08
4.58902e-07
5.54457e-08
4.77745e-07
4.82793e-08
4.94584e-07
4.21069e-08
5.09633e-07
3.68222e-08
5.23094e-07
3.2303e-08
5.35155e-07
2.84332e-08
5.45982e-07
2.51101e-08
5.5572e-07
2.22464e-08
5.64499e-07
1.97691e-08
5.72431e-07
1.76176e-08
5.79612e-07
1.57404e-08
5.8613e-07
1.4094e-08
1.26625e-08
5.92053e-07
2.15302e-07
6.10479e-08
2.46527e-07
6.02403e-08
2.76297e-07
5.31766e-08
3.03303e-07
4.5858e-08
3.27013e-07
3.99297e-08
3.47856e-07
3.4603e-08
3.66237e-07
2.98988e-08
3.82468e-07
2.58759e-08
3.96827e-07
2.24626e-08
4.09563e-07
1.95677e-08
4.20888e-07
1.71082e-08
4.30987e-07
1.50111e-08
4.40017e-07
1.32155e-08
4.48115e-07
1.16713e-08
4.55395e-07
1.03374e-08
4.61957e-07
9.17917e-09
4.67889e-07
8.16198e-09
7.2876e-09
4.73263e-07
1.27954e-07
3.10772e-08
1.60943e-07
2.7251e-08
1.89651e-07
2.44694e-08
2.15179e-07
2.033e-08
2.37305e-07
1.78034e-08
2.56549e-07
1.53587e-08
2.73327e-07
1.31215e-08
2.87979e-07
1.12238e-08
3.0081e-07
9.63091e-09
3.12085e-07
8.29244e-09
3.22027e-07
7.16622e-09
3.30823e-07
6.21498e-09
3.38631e-07
5.40763e-09
3.45583e-07
4.71929e-09
3.51792e-07
4.12936e-09
3.57349e-07
3.62171e-09
3.62339e-07
3.17191e-09
2.77941e-09
3.66847e-07
5.8662e-08
8.5913e-08
1.10382e-07
1.30712e-07
1.48516e-07
1.63874e-07
1.76996e-07
1.8822e-07
1.97851e-07
2.06143e-07
2.13309e-07
2.19524e-07
2.24932e-07
2.29651e-07
2.33781e-07
2.37402e-07
2.40574e-07
2.43354e-07
3.61467e-09
-3.61439e-09
9.46478e-09
-5.84959e-09
1.45915e-08
-5.12633e-09
1.79266e-08
-3.33469e-09
1.92001e-08
-1.27318e-09
1.85397e-08
6.60872e-10
1.62697e-08
2.27024e-09
1.27545e-08
3.51557e-09
8.27851e-09
4.47614e-09
3.01459e-09
5.26423e-09
-2.98342e-09
5.99808e-09
-9.75997e-09
6.77678e-09
-1.73713e-08
7.61126e-09
-2.58548e-08
8.48366e-09
-3.52393e-08
9.38438e-09
-4.5531e-08
1.02918e-08
-5.67088e-08
1.11777e-08
-6.87226e-08
1.20138e-08
-8.14984e-08
1.27755e-08
-9.49417e-08
1.34431e-08
-1.08945e-07
1.40028e-08
-1.23391e-07
1.44461e-08
-1.38161e-07
1.47694e-08
-1.53135e-07
1.49732e-08
-1.68197e-07
1.50617e-08
-1.8324e-07
1.5042e-08
-1.98164e-07
1.49232e-08
-2.1288e-07
1.47157e-08
-2.27311e-07
1.44305e-08
-2.4139e-07
1.40784e-08
-2.5506e-07
1.36697e-08
-2.68275e-07
1.32139e-08
-2.80995e-07
1.27198e-08
-2.9319e-07
1.21948e-08
-3.04836e-07
1.16455e-08
-3.15914e-07
1.10776e-08
-3.2641e-07
1.04956e-08
-3.36313e-07
9.90329e-09
-3.45617e-07
9.30375e-09
-3.54317e-07
8.6994e-09
-3.62409e-07
8.09216e-09
-3.69892e-07
7.48345e-09
-3.76767e-07
6.87435e-09
-3.83032e-07
6.26562e-09
-3.8869e-07
5.65766e-09
-3.93741e-07
5.05063e-09
-3.98185e-07
4.44431e-09
-4.02023e-07
3.83817e-09
-4.05255e-07
3.2313e-09
-4.07877e-07
2.62251e-09
-4.09887e-07
2.01025e-09
-4.1128e-07
1.39275e-09
-4.1205e-07
7.69423e-10
-4.12199e-07
1.49344e-10
-4.11762e-07
-4.37275e-10
-4.10787e-07
-9.74529e-10
-4.0931e-07
-1.47712e-09
-4.07352e-07
-1.95747e-09
-4.04931e-07
-2.42153e-09
-4.02059e-07
-2.87166e-09
-3.9875e-07
-3.30896e-09
-3.95017e-07
-3.73348e-09
-3.90872e-07
-4.1453e-09
-3.86328e-07
-4.54397e-09
-3.814e-07
-4.92934e-09
-3.76099e-07
-5.30088e-09
-3.70441e-07
-5.65852e-09
-3.6444e-07
-6.00175e-09
-3.5811e-07
-6.33059e-09
-3.51466e-07
-6.64464e-09
-3.44523e-07
-6.94398e-09
-3.37295e-07
-7.2283e-09
-3.29799e-07
-7.49779e-09
-3.22047e-07
-7.75221e-09
-3.14056e-07
-7.99184e-09
-3.0584e-07
-8.21657e-09
-2.97414e-07
-8.42674e-09
-2.88792e-07
-8.62236e-09
-2.7999e-07
-8.80386e-09
-2.71019e-07
-8.97135e-09
-2.61896e-07
-9.12525e-09
-2.52631e-07
-9.26597e-09
-2.4324e-07
-9.39269e-09
-2.33736e-07
-9.50585e-09
-2.24131e-07
-9.6067e-09
-2.14438e-07
-9.69535e-09
-2.04667e-07
-9.77199e-09
-1.94832e-07
-9.83692e-09
-1.84942e-07
-9.89048e-09
-1.7501e-07
-9.933e-09
-1.65046e-07
-9.96496e-09
-1.5506e-07
-9.98676e-09
-1.45062e-07
-9.99882e-09
-1.35061e-07
-1.00015e-08
-1.25067e-07
-9.99513e-09
-1.15087e-07
-9.9801e-09
-1.05131e-07
-9.95682e-09
-9.52064e-08
-9.92564e-09
-8.53206e-08
-9.88695e-09
-7.54809e-08
-9.84111e-09
-6.56943e-08
-9.7884e-09
-5.59674e-08
-9.72926e-09
-4.63066e-08
-9.6639e-09
-3.67176e-08
-9.59284e-09
-2.72056e-08
-9.51616e-09
-1.77762e-08
-9.43386e-09
-8.43684e-09
-9.34355e-09
7.95074e-10
-9.23606e-09
9.92807e-09
-9.13646e-09
1.8969e-08
-9.04423e-09
2.79015e-08
-8.93494e-09
3.67201e-08
-8.82098e-09
4.54223e-08
-8.7037e-09
5.40046e-08
-8.58375e-09
6.24648e-08
-8.46085e-09
7.07997e-08
-8.33558e-09
7.90073e-08
-8.20757e-09
8.70849e-08
-8.07733e-09
9.50305e-08
-7.94447e-09
1.02841e-07
-7.80939e-09
1.10513e-07
-7.67191e-09
1.18045e-07
-7.53248e-09
1.25435e-07
-7.3909e-09
1.32682e-07
-7.24765e-09
1.39784e-07
-7.10233e-09
1.46739e-07
-6.95546e-09
1.53547e-07
-6.80673e-09
1.60205e-07
-6.65671e-09
1.66712e-07
-6.5051e-09
1.73066e-07
-6.35245e-09
1.79267e-07
-6.19848e-09
1.85313e-07
-6.04366e-09
1.91204e-07
-5.8878e-09
1.96938e-07
-5.73134e-09
2.02515e-07
-5.57411e-09
2.07935e-07
-5.41652e-09
2.13197e-07
-5.25846e-09
2.18301e-07
-5.10025e-09
2.23247e-07
-4.94184e-09
2.28035e-07
-4.7835e-09
2.32664e-07
-4.62527e-09
2.37135e-07
-4.46734e-09
2.41449e-07
-4.30984e-09
2.45605e-07
-4.1529e-09
2.49605e-07
-3.99663e-09
2.53449e-07
-3.84114e-09
2.57138e-07
-3.68655e-09
2.60673e-07
-3.53295e-09
2.64056e-07
-3.38045e-09
2.67287e-07
-3.22912e-09
2.70368e-07
-3.07909e-09
2.73301e-07
-2.93039e-09
2.76085e-07
-2.78316e-09
2.78724e-07
-2.63748e-09
2.81219e-07
-2.49343e-09
2.83572e-07
-2.351e-09
2.85783e-07
-2.21015e-09
2.87855e-07
-2.07079e-09
2.89789e-07
-1.93289e-09
2.91586e-07
-1.79628e-09
2.93248e-07
-1.66074e-09
2.94775e-07
-1.52592e-09
2.96167e-07
-1.39137e-09
2.97424e-07
-1.25641e-09
2.98545e-07
-1.12005e-09
2.99526e-07
-9.80839e-10
3.00364e-07
-8.36824e-10
3.0105e-07
-6.8527e-10
3.01572e-07
-5.21781e-10
3.01912e-07
-3.39837e-10
3.02029e-07
-1.16789e-10
3.01858e-07
1.71548e-10
3.0133e-07
5.2865e-10
3.00356e-07
9.74385e-10
2.98786e-07
1.57032e-09
2.96357e-07
2.42993e-09
2.92567e-07
3.78996e-09
2.8649e-07
6.07686e-09
2.75995e-07
1.04952e-08
1.89004e-08
2.57095e-07
3.58251e-09
-7.19659e-09
6.22545e-09
-8.49199e-09
6.37523e-09
-5.27577e-09
4.46005e-09
-1.41917e-09
8.85016e-10
2.30209e-09
-4.11947e-09
5.66564e-09
-1.04427e-08
8.59369e-09
-1.80175e-08
1.10906e-08
-2.6767e-08
1.32257e-08
-3.66048e-08
1.51022e-08
-4.74278e-08
1.68211e-08
-5.91069e-08
1.8456e-08
-7.15376e-08
2.0042e-08
-8.46337e-08
2.15798e-08
-9.82986e-08
2.30492e-08
-1.12427e-07
2.44203e-08
-1.26912e-07
2.56621e-08
-1.41643e-07
2.67453e-08
-1.56515e-07
2.76467e-08
-1.71421e-07
2.83495e-08
-1.86263e-07
2.88441e-08
-2.00946e-07
2.91292e-08
-2.15388e-07
2.92113e-08
-2.29518e-07
2.91026e-08
-2.43275e-07
2.88187e-08
-2.56611e-07
2.83778e-08
-2.69488e-07
2.77989e-08
-2.81873e-07
2.71012e-08
-2.93747e-07
2.63033e-08
-3.05091e-07
2.54224e-08
-3.15896e-07
2.4474e-08
-3.26154e-07
2.34719e-08
-3.35862e-07
2.24279e-08
-3.4502e-07
2.13521e-08
-3.53627e-07
2.02526e-08
-3.61686e-07
1.91364e-08
-3.69199e-07
1.80087e-08
-3.7617e-07
1.68739e-08
-3.82602e-07
1.57354e-08
-3.88498e-07
1.45956e-08
-3.93862e-07
1.34564e-08
-3.98698e-07
1.23195e-08
-4.0301e-07
1.11858e-08
-4.06801e-07
1.00563e-08
-4.10075e-07
8.93151e-09
-4.12836e-07
7.81199e-09
-4.1509e-07
6.69819e-09
-4.16842e-07
5.59062e-09
-4.18101e-07
4.48993e-09
-4.18876e-07
3.39715e-09
-4.19179e-07
2.31399e-09
-4.1903e-07
1.24346e-09
-4.18452e-07
1.91244e-10
-4.17468e-07
-8.33992e-10
-4.16077e-07
-1.82924e-09
-4.14253e-07
-2.79794e-09
-4.11988e-07
-3.74236e-09
-4.09282e-07
-4.66337e-09
-4.06142e-07
-5.56167e-09
-4.02576e-07
-6.43733e-09
-3.98595e-07
-7.29009e-09
-3.94209e-07
-8.11933e-09
-3.8943e-07
-8.92441e-09
-3.8427e-07
-9.70449e-09
-3.78741e-07
-1.04589e-08
-3.72855e-07
-1.11869e-08
-3.66626e-07
-1.18878e-08
-3.60067e-07
-1.25612e-08
-3.53192e-07
-1.32065e-08
-3.46013e-07
-1.38234e-08
-3.38546e-07
-1.44116e-08
-3.30804e-07
-1.49709e-08
-3.22801e-07
-1.55012e-08
-3.14551e-07
-1.60026e-08
-3.06068e-07
-1.6475e-08
-2.97367e-07
-1.69186e-08
-2.8846e-07
-1.73339e-08
-2.79362e-07
-1.77209e-08
-2.70086e-07
-1.80803e-08
-2.60646e-07
-1.84126e-08
-2.51054e-07
-1.87184e-08
-2.41322e-07
-1.89981e-08
-2.31465e-07
-1.9251e-08
-2.21494e-07
-1.9478e-08
-2.11421e-07
-1.96808e-08
-2.01257e-07
-1.98598e-08
-1.91015e-07
-2.00155e-08
-1.80704e-07
-2.01484e-08
-1.70336e-07
-2.02592e-08
-1.59921e-07
-2.03486e-08
-1.49469e-07
-2.04175e-08
-1.38989e-07
-2.04665e-08
-1.28492e-07
-2.04966e-08
-1.17985e-07
-2.05084e-08
-1.07478e-07
-2.05026e-08
-9.6979e-08
-2.04799e-08
-8.64951e-08
-2.04412e-08
-7.60342e-08
-2.03871e-08
-6.56036e-08
-2.03183e-08
-5.52101e-08
-2.02355e-08
-4.48604e-08
-2.01393e-08
-3.45607e-08
-2.00304e-08
-2.43172e-08
-1.99095e-08
-1.41353e-08
-1.9777e-08
-4.02106e-09
-1.96331e-08
6.02054e-09
-1.94779e-08
1.59866e-08
-1.93122e-08
2.58829e-08
-1.91345e-08
3.56933e-08
-1.8949e-08
4.54029e-08
-1.87554e-08
5.50165e-08
-1.85501e-08
6.45307e-08
-1.83363e-08
7.39419e-08
-1.81159e-08
8.32471e-08
-1.78896e-08
9.24432e-08
-1.76576e-08
1.01528e-07
-1.74202e-08
1.10498e-07
-1.71776e-08
1.19351e-07
-1.693e-08
1.28084e-07
-1.66774e-08
1.36696e-07
-1.64201e-08
1.45182e-07
-1.61583e-08
1.53542e-07
-1.58922e-08
1.61772e-07
-1.56221e-08
1.69872e-07
-1.53483e-08
1.7784e-07
-1.50706e-08
1.85674e-07
-1.47896e-08
1.93373e-07
-1.45051e-08
2.00935e-07
-1.42177e-08
2.08358e-07
-1.39273e-08
2.15642e-07
-1.36345e-08
2.22784e-07
-1.33391e-08
2.29784e-07
-1.30417e-08
2.3664e-07
-1.27424e-08
2.43352e-07
-1.24414e-08
2.49919e-07
-1.21389e-08
2.5634e-07
-1.18353e-08
2.62615e-07
-1.15308e-08
2.68743e-07
-1.12255e-08
2.74724e-07
-1.09197e-08
2.80557e-07
-1.06136e-08
2.86242e-07
-1.03075e-08
2.91779e-07
-1.00017e-08
2.97168e-07
-9.69647e-09
3.0241e-07
-9.39194e-09
3.07504e-07
-9.08841e-09
3.12451e-07
-8.78604e-09
3.17251e-07
-8.48507e-09
3.21906e-07
-8.18565e-09
3.26415e-07
-7.88801e-09
3.3078e-07
-7.59227e-09
3.35001e-07
-7.29869e-09
3.39079e-07
-7.00735e-09
3.43016e-07
-6.71848e-09
3.46812e-07
-6.43218e-09
3.50468e-07
-6.14858e-09
3.53986e-07
-5.86766e-09
3.57366e-07
-5.58937e-09
3.6061e-07
-5.31358e-09
3.63718e-07
-5.04018e-09
3.66692e-07
-4.7688e-09
3.69531e-07
-4.49898e-09
3.72235e-07
-4.23003e-09
3.74806e-07
-3.961e-09
3.7724e-07
-3.69053e-09
3.79538e-07
-3.41671e-09
3.81694e-07
-3.13676e-09
3.83705e-07
-2.84687e-09
3.85561e-07
-2.54168e-09
3.87253e-07
-2.21335e-09
3.88764e-07
-1.85e-09
3.9008e-07
-1.43225e-09
3.91184e-07
-9.31988e-10
3.92026e-07
-3.13726e-10
3.92528e-07
4.72815e-10
3.92579e-07
1.5196e-09
3.92022e-07
2.98723e-09
3.90588e-07
5.22502e-09
3.87901e-07
8.76374e-09
3.8322e-07
1.51766e-08
2.6799e-08
3.75321e-07
4.64016e-10
-7.66038e-09
-2.25678e-09
-5.77084e-09
-6.96932e-09
-5.63035e-10
-1.28936e-08
4.50529e-09
-1.97546e-08
9.16324e-09
-2.74728e-08
1.33839e-08
-3.60467e-08
1.71677e-08
-4.54885e-08
2.05325e-08
-5.57846e-08
2.35218e-08
-6.68804e-08
2.61981e-08
-7.8683e-08
2.86238e-08
-9.10728e-08
3.08458e-08
-1.03919e-07
3.28882e-08
-1.17092e-07
3.4753e-08
-1.3047e-07
3.64273e-08
-1.43941e-07
3.78912e-08
-1.57404e-07
3.91244e-08
-1.70769e-07
4.01105e-08
-1.83962e-07
4.08393e-08
-1.9692e-07
4.13074e-08
-2.09595e-07
4.1519e-08
-2.2195e-07
4.14849e-08
-2.3396e-07
4.12205e-08
-2.45602e-07
4.0745e-08
-2.56863e-07
4.00797e-08
-2.67732e-07
3.92467e-08
-2.78202e-07
3.82682e-08
-2.88266e-07
3.71654e-08
-2.97921e-07
3.59578e-08
-3.07162e-07
3.46636e-08
-3.15987e-07
3.32984e-08
-3.24392e-07
3.18762e-08
-3.32373e-07
3.04088e-08
-3.39927e-07
2.8906e-08
-3.47051e-07
2.73762e-08
-3.5374e-07
2.58261e-08
-3.59993e-07
2.4261e-08
-3.65804e-07
2.26854e-08
-3.71172e-07
2.11028e-08
-3.76092e-07
1.9516e-08
-3.80563e-07
1.79272e-08
-3.84582e-07
1.63384e-08
-3.88147e-07
1.47512e-08
-3.91258e-07
1.31669e-08
-3.93913e-07
1.15869e-08
-3.96114e-07
1.00126e-08
-3.97861e-07
8.44551e-09
-3.99158e-07
6.88713e-09
-4.00007e-07
5.33945e-09
-4.00415e-07
3.8048e-09
-4.00387e-07
2.28607e-09
-3.99931e-07
7.86825e-10
-3.99051e-07
-6.8871e-10
-3.97747e-07
-2.13711e-09
-3.96019e-07
-3.55808e-09
-3.93864e-07
-4.95255e-09
-3.91286e-07
-6.32006e-09
-3.8829e-07
-7.65954e-09
-3.84882e-07
-8.96981e-09
-3.8107e-07
-1.02496e-08
-3.76863e-07
-1.14974e-08
-3.7227e-07
-1.27121e-08
-3.67302e-07
-1.38921e-08
-3.61971e-07
-1.50363e-08
-3.56286e-07
-1.61433e-08
-3.50261e-07
-1.72121e-08
-3.43908e-07
-1.82417e-08
-3.37238e-07
-1.92312e-08
-3.30264e-07
-2.018e-08
-3.23001e-07
-2.10874e-08
-3.15459e-07
-2.19531e-08
-3.07654e-07
-2.27767e-08
-2.99598e-07
-2.3558e-08
-2.91303e-07
-2.4297e-08
-2.82785e-07
-2.49939e-08
-2.74055e-07
-2.56488e-08
-2.65127e-07
-2.6262e-08
-2.56014e-07
-2.68341e-08
-2.46729e-07
-2.73657e-08
-2.37285e-07
-2.78576e-08
-2.27693e-07
-2.83106e-08
-2.17967e-07
-2.87253e-08
-2.08117e-07
-2.91013e-08
-1.98156e-07
-2.94398e-08
-1.88095e-07
-2.97424e-08
-1.77945e-07
-3.00102e-08
-1.67717e-07
-3.02437e-08
-1.57422e-07
-3.0444e-08
-1.4707e-07
-3.0612e-08
-1.3667e-07
-3.07488e-08
-1.26232e-07
-3.08554e-08
-1.15766e-07
-3.0933e-08
-1.0528e-07
-3.09827e-08
-9.47827e-08
-3.10056e-08
-8.42828e-08
-3.10027e-08
-7.3788e-08
-3.09751e-08
-6.33056e-08
-3.09239e-08
-5.2843e-08
-3.085e-08
-4.24073e-08
-3.07546e-08
-3.2005e-08
-3.06384e-08
-2.16426e-08
-3.05026e-08
-1.13262e-08
-3.0348e-08
-1.06158e-09
-3.01755e-08
9.14548e-09
-2.99856e-08
1.929e-08
-2.97793e-08
2.93681e-08
-2.95577e-08
3.93757e-08
-2.93214e-08
4.93102e-08
-2.90702e-08
5.91645e-08
-2.88046e-08
6.89325e-08
-2.85244e-08
7.86116e-08
-2.82302e-08
8.81987e-08
-2.79241e-08
9.76898e-08
-2.76077e-08
1.07082e-07
-2.72819e-08
1.16371e-07
-2.69473e-08
1.25555e-07
-2.66043e-08
1.34631e-07
-2.62532e-08
1.43596e-07
-2.58944e-08
1.52447e-07
-2.5528e-08
1.61182e-07
-2.51545e-08
1.69798e-07
-2.47742e-08
1.78292e-07
-2.43875e-08
1.86664e-07
-2.39947e-08
1.94912e-07
-2.3596e-08
2.03033e-07
-2.31919e-08
2.11026e-07
-2.27824e-08
2.18889e-07
-2.23679e-08
2.2662e-07
-2.19488e-08
2.34219e-07
-2.15254e-08
2.41683e-07
-2.1098e-08
2.49012e-07
-2.06669e-08
2.56204e-07
-2.02325e-08
2.63258e-07
-1.97952e-08
2.70173e-07
-1.93552e-08
2.76949e-07
-1.8913e-08
2.83584e-07
-1.84688e-08
2.90078e-07
-1.80231e-08
2.9643e-07
-1.75761e-08
3.02641e-07
-1.71281e-08
3.08708e-07
-1.66795e-08
3.14634e-07
-1.62307e-08
3.20416e-07
-1.57821e-08
3.26055e-07
-1.5334e-08
3.31551e-07
-1.48869e-08
3.36905e-07
-1.44409e-08
3.42116e-07
-1.39964e-08
3.47186e-07
-1.35538e-08
3.52115e-07
-1.31132e-08
3.56903e-07
-1.2675e-08
3.61551e-07
-1.22394e-08
3.6606e-07
-1.18068e-08
3.70431e-07
-1.13773e-08
3.74664e-07
-1.09511e-08
3.78761e-07
-1.05286e-08
3.82723e-07
-1.01097e-08
3.8655e-07
-9.69444e-09
3.90245e-07
-9.28285e-09
3.93806e-07
-8.87475e-09
3.97237e-07
-8.46992e-09
4.00536e-07
-8.06786e-09
4.03706e-07
-7.66787e-09
4.06745e-07
-7.26893e-09
4.09654e-07
-6.86961e-09
4.12432e-07
-6.46794e-09
4.15077e-07
-6.06114e-09
4.17585e-07
-5.64526e-09
4.19954e-07
-5.21484e-09
4.22175e-07
-4.76224e-09
4.24238e-07
-4.27669e-09
4.26131e-07
-3.74223e-09
4.27835e-07
-3.13626e-09
4.29329e-07
-2.42587e-09
4.30578e-07
-1.56255e-09
4.31526e-07
-4.74374e-10
4.32087e-07
9.58457e-10
4.32144e-07
2.93035e-09
4.31541e-07
5.82869e-09
4.30086e-07
1.02194e-08
4.27739e-07
1.75232e-08
2.97258e-08
4.24813e-07
-3.1455e-09
-4.51472e-09
-9.80216e-09
8.86021e-10
-1.75953e-08
7.23018e-09
-2.59505e-08
1.28606e-08
-3.47507e-08
1.79636e-08
-4.3989e-08
2.26222e-08
-5.36897e-08
2.68684e-08
-6.38754e-08
3.07183e-08
-7.45448e-08
3.41913e-08
-8.56613e-08
3.73146e-08
-9.71549e-08
4.01174e-08
-1.08932e-07
4.26232e-08
-1.20889e-07
4.48451e-08
-1.32923e-07
4.67865e-08
-1.44939e-07
4.84434e-08
-1.56857e-07
4.98094e-08
-1.68611e-07
5.08786e-08
-1.8015e-07
5.16492e-08
-1.91435e-07
5.21241e-08
-2.0244e-07
5.23122e-08
-2.13148e-07
5.22272e-08
-2.2355e-07
5.1887e-08
-2.33641e-07
5.13118e-08
-2.4342e-07
5.05233e-08
-2.52885e-07
4.95442e-08
-2.62035e-07
4.83969e-08
-2.7087e-07
4.71028e-08
-2.79387e-07
4.56824e-08
-2.87583e-07
4.41541e-08
-2.95454e-07
4.25347e-08
-3.02995e-07
4.08391e-08
-3.10199e-07
3.90802e-08
-3.1706e-07
3.72692e-08
-3.23569e-07
3.54155e-08
-3.2972e-07
3.35271e-08
-3.35505e-07
3.16107e-08
-3.40916e-07
2.96717e-08
-3.45945e-07
2.77149e-08
-3.50587e-07
2.5744e-08
-3.54833e-07
2.37624e-08
-3.58679e-07
2.17729e-08
-3.62119e-07
1.97781e-08
-3.65148e-07
1.77802e-08
-3.67762e-07
1.57815e-08
-3.6996e-07
1.37843e-08
-3.71738e-07
1.17906e-08
-3.73095e-07
9.8031e-09
-3.74032e-07
7.82421e-09
-3.7455e-07
5.85678e-09
-3.74649e-07
3.90388e-09
-3.74332e-07
1.96883e-09
-3.736e-07
5.51158e-11
-3.72455e-07
-1.83387e-09
-3.70896e-07
-3.69549e-09
-3.68926e-07
-5.5283e-09
-3.66548e-07
-7.33118e-09
-3.63765e-07
-9.10242e-09
-3.60585e-07
-1.084e-08
-3.57013e-07
-1.25416e-08
-3.53058e-07
-1.42052e-08
-3.48727e-07
-1.58285e-08
-3.44029e-07
-1.74094e-08
-3.38975e-07
-1.8946e-08
-3.33575e-07
-2.04365e-08
-3.27839e-07
-2.18792e-08
-3.21779e-07
-2.32725e-08
-3.15406e-07
-2.46151e-08
-3.08731e-07
-2.59059e-08
-3.01767e-07
-2.7144e-08
-2.94526e-07
-2.83284e-08
-2.87021e-07
-2.94587e-08
-2.79264e-07
-3.05343e-08
-2.71267e-07
-3.15552e-08
-2.63043e-07
-3.25212e-08
-2.54605e-07
-3.34324e-08
-2.45965e-07
-3.4289e-08
-2.37135e-07
-3.50915e-08
-2.28129e-07
-3.58405e-08
-2.18958e-07
-3.65368e-08
-2.09635e-07
-3.71814e-08
-2.00171e-07
-3.77751e-08
-1.90578e-07
-3.8319e-08
-1.80866e-07
-3.88131e-08
-1.71048e-07
-3.92585e-08
-1.61134e-07
-3.96572e-08
-1.51134e-07
-4.00103e-08
-1.41059e-07
-4.03188e-08
-1.3092e-07
-4.05841e-08
-1.20724e-07
-4.08073e-08
-1.10483e-07
-4.09899e-08
-1.00206e-07
-4.11333e-08
-8.98999e-08
-4.12388e-08
-7.95748e-08
-4.1308e-08
-6.92383e-08
-4.13422e-08
-5.88984e-08
-4.13428e-08
-4.85625e-08
-4.13111e-08
-3.82381e-08
-4.12486e-08
-2.7932e-08
-4.11565e-08
-1.76509e-08
-4.10361e-08
-7.40135e-09
-4.08886e-08
2.81055e-09
-4.07153e-08
1.29787e-08
-4.05172e-08
2.30977e-08
-4.02958e-08
3.31629e-08
-4.00522e-08
4.31697e-08
-3.97875e-08
5.31133e-08
-3.95027e-08
6.29894e-08
-3.91987e-08
7.27937e-08
-3.88756e-08
8.25218e-08
-3.85337e-08
9.21699e-08
-3.81734e-08
1.01735e-07
-3.77958e-08
1.11213e-07
-3.74026e-08
1.206e-07
-3.69954e-08
1.29893e-07
-3.65752e-08