/*--------------------------------*- C++ -*----------------------------------*\
  =========                 |
  \\      /  F ield         | OpenFOAM: The Open Source CFD Toolbox
   \\    /   O peration     | Website:  https://openfoam.org
    \\  /    A nd           | Version:  10
     \\/     M anipulation  |
\*---------------------------------------------------------------------------*/
FoamFile
{
    format      ascii;
    class       volScalarField::Internal;
    location    "200";
    object      tmp<kEpsilon:G>;
}
// * * * * * * * * * * * * * * * * * * * * * * * * * * * * * * * * * * * * * //

dimensions      [0 2 -3 0 0 0 0];

value           nonuniform List<scalar> 
12225
(
0
0
0
0
0
0
0
0
0
0
0
0
0
0
0
0
0
0
14.976
9.6124
10.8683
11.2828
11.5548
11.8519
12.1897
12.562
12.9495
13.3384
13.7196
14.0865
14.4322
14.7457
14.9894
15.0637
14.5577
12.7091
19.4639
14.5555
13.0617
11.6224
10.6674
9.98312
9.47756
9.11304
8.85037
8.66032
8.5217
8.4175
8.33108
8.24102
8.10085
7.81639
7.14858
6.05418
25.1602
20.749
16.7512
13.9861
12.2143
10.9357
9.96207
9.21304
8.62804
8.16365
7.78795
7.47537
7.20192
6.93967
6.64166
6.2366
5.62587
4.94273
28.5979
26.241
20.7539
16.9972
14.5154
12.7099
11.3315
10.2562
9.40187
8.71139
8.14264
7.66206
7.23931
6.84224
6.42777
5.94969
5.38854
4.90925
30.6319
30.4452
24.5024
20.1232
17.0451
14.7632
13.0129
11.6362
10.5324
9.63223
8.88437
8.24832
7.68886
7.17214
6.66171
6.13349
5.60534
5.23111
31.3383
33.1342
27.6783
23.0703
19.5603
16.8803
14.7998
13.1476
11.8118
10.7145
9.79713
9.01402
8.32679
7.70203
7.11061
6.54466
6.03427
5.70154
30.7402
34.2156
29.9346
25.5455
21.8339
18.8795
16.5359
14.6503
13.1106
11.8356
10.7634
9.84552
9.04243
8.32263
7.6635
7.0665
6.55927
6.22582
29.0211
33.6582
31.0278
27.2117
23.6308
20.561
18.058
16.0053
14.3071
12.887
11.6846
10.652
9.75086
8.95249
8.23906
7.6151
7.09868
6.73935
26.4658
31.6325
30.7398
27.8129
24.6685
21.7084
19.1874
17.0604
15.2694
13.7525
12.457
11.3399
10.3662
9.51041
8.75789
8.11169
7.57914
7.18267
23.3925
28.4038
29.0282
27.2082
24.708
22.1004
19.7227
17.6444
15.8498
14.3034
12.9672
11.807
10.7942
9.90773
9.13475
8.47491
7.9268
7.49399
20.2551
24.6933
26.333
25.5346
23.7565
21.6452
19.5485
17.6265
15.915
14.4111
13.0945
11.9415
10.9309
10.046
9.27574
8.6172
8.06102
7.60686
17.0319
20.595
22.7816
22.8504
21.8124
20.2869
18.606
16.9486
15.4138
14.0287
12.7935
11.6987
10.7319
9.88191
9.13984
8.50204
7.95343
7.49736
13.4617
15.9058
18.1111
18.8505
18.5382
17.6876
16.5604
15.3049
14.0685
12.9063
11.8406
10.8773
10.0148
9.24884
8.57433
7.98683
7.47401
7.03856
9.59707
11.0299
12.7537
13.7274
13.9552
13.7186
13.1628
12.4087
11.5804
10.7479
9.94906
9.20318
8.5194
7.90097
7.34754
6.85623
6.42227
6.04533
5.69686
6.37445
7.42388
8.23216
8.64131
8.7552
8.6376
8.34167
7.9381
7.48298
7.01263
6.54986
6.10883
5.69764
5.31994
4.97563
4.66748
4.39339
2.25244
2.50716
3.00921
3.48043
3.78796
3.96248
4.02666
3.99196
3.88271
3.72579
3.54205
3.34614
3.14835
2.95558
2.77185
2.59851
2.44124
2.29713
0.186862
0.282826
0.508769
0.7488
0.919765
1.03483
1.10923
1.14469
1.14656
1.12452
1.08707
1.04016
0.988056
0.933815
0.879462
0.826063
0.776296
0.728368
0.812179
0.954808
1.24825
1.55459
1.7744
1.91742
2.00152
2.03214
2.0186
1.97408
1.9099
1.83408
1.75231
1.66873
1.58632
1.50735
1.43034
1.35723
4.44738
4.97171
5.80596
6.52024
6.94117
7.12721
7.13325
6.99443
6.75573
6.45924
6.13508
5.8029
5.47546
5.16076
4.86344
4.58625
4.32632
4.08987
9.58053
10.9701
12.5849
13.5363
13.788
13.5933
13.1062
12.4347
11.6848
10.9222
10.1841
9.48928
8.84623
8.2574
7.7217
7.23651
6.79607
6.40386
15.2781
18.0909
20.2758
20.7444
20.1432
19.0278
17.7074
16.3196
14.9908
13.7663
12.6596
11.6698
10.7893
10.0074
9.31334
8.69643
8.14715
7.66383
20.9157
25.3541
26.8975
25.8916
23.9701
21.8078
19.6792
17.7556
16.0553
14.5754
13.2938
12.1827
11.2175
10.3765
9.64106
8.99515
8.42684
7.93082
25.9926
31.0191
30.5937
27.6598
24.5931
21.7007
19.223
17.1187
15.3499
13.8591
12.5957
11.5196
10.5983
9.80512
9.11833
8.51997
7.99737
7.5439
29.5702
33.6827
30.5886
26.3081
22.6035
19.6151
17.1894
15.2226
13.6148
12.2862
11.1777
10.2453
9.4547
8.77916
8.19784
7.69385
7.25537
6.87679
30.7542
32.5017
27.4913
22.6723
19.1747
16.5411
14.4884
12.8612
11.55
10.4789
9.59356
8.85429
8.23132
7.70182
7.24837
6.85675
6.51675
6.22471
29.0649
27.5183
22.2851
18.129
15.3636
13.3593
11.8255
10.6198
9.65786
8.87921
8.24082
7.71171
7.26877
6.89451
6.57575
6.30188
6.06476
5.86267
24.2491
19.4179
16.3362
13.8078
12.0359
10.786
9.83159
9.08666
8.50196
8.03723
7.66297
7.35829
7.10778
6.89985
6.72597
6.57935
6.45473
6.3528
18.4753
11.2768
11.4342
10.9959
10.5338
10.2399
10.0504
9.94367
9.90282
9.90786
9.94369
10.0002
10.0704
10.149
10.2327
10.3187
10.406
10.5083
0
0
0
0
0
0
0
0
0
0
0
0
0
0
0
0
0
0
0
0
0
0
0
0
0
0
0
0
0
0
0
0
0
0
0
0
0
0
0
0
0
0
0
0
0
0
0
0
0
0
0
0
0
0
0
0
0
0
0
0
0
0
0
0
0
0
0
0
0
0
0
0
0
0
0
0
0
0
0
0
0
0
0
0
0
0
0
0
0
0
0
0
0
0
0
0
0
0
0
0
0
0
0
0
0
0
0
0
0
0
0
0
0
0
0
0
0
0
0
0
0
0
0
0
0
0
0
0
0
0
0
0
0
0
0
0
0
0
0
0
0
0
0
0
0
0
0
0
0
0
0
0
0
0
0
0
0
0
0
0
0
0
0
0
0
0
0
0
0
0
0
0
0
0
0
0
0
0
0
0
0
0
0
0
0
0
0
0
0
0
0
0
0
0
0
0
0
0
0
0.000441531
8.58898e-05
0.000921843
0.00421244
0.0102733
0.0186864
0.0289675
0.0405962
0.0532659
0.0668215
0.081214
0.0964032
0.112307
0.128732
0.145413
0.161859
0.177539
0.191877
0.204291
0.214311
0.221662
0.226133
0.227656
0.226296
0.222232
0.215728
0.207111
0.196743
0.184998
0.17224
0.158812
0.145025
0.131151
0.117425
0.104044
0.0911699
0.0789323
0.0674348
0.0567577
0.0469615
0.0380908
0.0301766
0.0232384
0.0172856
0.0123184
0.00832794
0.00529512
0.00318929
0.00196546
0.00156077
0.00189334
0.00287363
0.00440997
0.00641589
0.00894549
0.0119679
0.0154499
0.0193635
0.0236718
0.0283335
0.0333043
0.038538
0.0439875
0.0496052
0.055344
0.0611577
0.0670023
0.0728351
0.0786169
0.0843107
0.0898834
0.0953045
0.100548
0.10559
0.110412
0.114997
0.119334
0.123415
0.127239
0.130805
0.134103
0.137115
0.139892
0.142421
0.144715
0.146783
0.148637
0.150291
0.151758
0.153054
0.154197
0.155204
0.156092
0.156877
0.157576
0.158206
0.158782
0.159319
0.159833
0.160338
0.160846
0.161373
0.16193
0.162527
0.163184
0.163961
0.164962
0.166238
0.167629
0.169057
0.170586
0.172223
0.173978
0.175856
0.177859
0.179991
0.182251
0.184641
0.187162
0.189817
0.192612
0.19555
0.19863
0.201853
0.205216
0.208722
0.212369
0.216158
0.220091
0.224166
0.228383
0.232742
0.237241
0.24188
0.246658
0.251573
0.256622
0.261804
0.267117
0.272558
0.278125
0.283816
0.289628
0.295559
0.301604
0.307762
0.314027
0.320398
0.32687
0.333436
0.340095
0.346843
0.353676
0.360591
0.367583
0.374648
0.38178
0.388972
0.396222
0.403526
0.410882
0.418287
0.425739
0.433232
0.440764
0.448336
0.455953
0.463626
0.4714
0.479328
0.487617
0.496482
0.506252
0.517213
0.530762
0.547644
0.576428
0.614068
0.733612
0
0.00100084
0.00905599
0.0182665
0.0286824
0.0410011
0.0556474
0.0724901
0.0907497
0.109333
0.127202
0.143588
0.158065
0.170398
0.180434
0.188031
0.193202
0.196011
0.196597
0.195162
0.19198
0.187217
0.18116
0.174093
0.166306
0.158072
0.149631
0.141188
0.132912
0.124934
0.117355
0.110245
0.103657
0.097624
0.0921688
0.0873078
0.0830533
0.0794162
0.0764076
0.0740392
0.0723238
0.0712746
0.0709051
0.0712275
0.0722523
0.073987
0.0764364
0.0796019
0.0834836
0.0880827
0.0934085
0.099488
0.10636
0.114043
0.122689
0.132093
0.142131
0.15271
0.163736
0.175126
0.186799
0.198676
0.210674
0.222714
0.234713
0.246594
0.25828
0.269698
0.28078
0.291464
0.301692
0.311412
0.320581
0.329159
0.337114
0.344421
0.351061
0.35702
0.362291
0.366877
0.370779
0.374033
0.376588
0.378518
0.379824
0.380536
0.380679
0.380279
0.379365
0.377968
0.376119
0.373854
0.371206
0.36821
0.364899
0.361305
0.357459
0.353389
0.349127
0.344701
0.340138
0.335461
0.330695
0.32587
0.321027
0.316203
0.31142
0.306635
0.301897
0.29732
0.292877
0.288518
0.284245
0.280064
0.275986
0.272014
0.268155
0.264411
0.260785
0.257278
0.253896
0.250644
0.247526
0.244543
0.241693
0.238975
0.23639
0.233938
0.231619
0.229434
0.227382
0.225462
0.223675
0.222018
0.22049
0.219091
0.217819
0.216671
0.215645
0.214739
0.213951
0.21328
0.212724
0.212281
0.211948
0.211723
0.211604
0.211588
0.211672
0.211854
0.21213
0.212497
0.212954
0.2135
0.214131
0.214846
0.215642
0.216518
0.217469
0.218494
0.219594
0.220767
0.222016
0.223341
0.224743
0.226225
0.227797
0.229473
0.231274
0.233234
0.235423
0.23776
0.240284
0.24334
0.247325
0.253224
0.261918
0.278751
0.303498
0.369749
0
0.010001
0.0343623
0.0530389
0.0682643
0.0817491
0.0955052
0.110312
0.125903
0.141451
0.155971
0.168615
0.178844
0.186444
0.191465
0.194127
0.194741
0.193658
0.19124
0.187837
0.183737
0.179223
0.174494
0.169713
0.164998
0.16044
0.156104
0.152036
0.148267
0.144821
0.141717
0.138975
0.136614
0.134657
0.133131
0.132068
0.131503
0.131477
0.132032
0.133214
0.135068
0.137641
0.140976
0.145115
0.150096
0.155952
0.162711
0.170397
0.179032
0.188634
0.199227
0.210832
0.22345
0.237036
0.251489
0.26668
0.282525
0.298928
0.315782
0.332977
0.350402
0.367945
0.385493
0.402936
0.420162
0.437065
0.453542
0.469497
0.484837
0.49948
0.51335
0.526381
0.538513
0.5497
0.559899
0.56908
0.57722
0.584304
0.590326
0.595293
0.599232
0.602152
0.60403
0.604956
0.604936
0.604011
0.602224
0.599615
0.596228
0.592109
0.587306
0.581869
0.57585
0.569299
0.562265
0.554796
0.546942
0.53875
0.530258
0.521507
0.512539
0.503397
0.494127
0.484775
0.475375
0.465949
0.456519
0.447092
0.437675
0.428333
0.419102
0.409966
0.400934
0.392026
0.383261
0.374653
0.366211
0.357942
0.34985
0.341941
0.334221
0.326699
0.319378
0.312259
0.305342
0.298628
0.292116
0.285807
0.279701
0.273797
0.268095
0.262594
0.257292
0.252186
0.247276
0.242559
0.238033
0.233694
0.22954
0.225566
0.22177
0.218149
0.2147
0.21142
0.208305
0.205351
0.202553
0.199909
0.197413
0.195063
0.192853
0.19078
0.18884
0.18703
0.185345
0.183784
0.182341
0.181016
0.179801
0.178696
0.1777
0.176811
0.176031
0.175361
0.1748
0.174357
0.174039
0.173863
0.173854
0.174043
0.174494
0.175251
0.176402
0.178182
0.180992
0.185776
0.193534
0.208226
0.230498
0.27442
0
0.0266215
0.0662106
0.0938413
0.112925
0.125629
0.135834
0.145362
0.154673
0.163562
0.171539
0.178102
0.18292
0.185896
0.187136
0.186885
0.185465
0.183207
0.180424
0.17738
0.174274
0.171256
0.168433
0.165881
0.163652
0.161775
0.160269
0.159146
0.158414
0.158083
0.158167
0.158684
0.159657
0.161116
0.163098
0.165645
0.168805
0.17263
0.177173
0.182492
0.188645
0.195686
0.203672
0.212652
0.222671
0.23377
0.245979
0.259323
0.273816
0.289466
0.306264
0.324187
0.343179
0.363147
0.383968
0.40553
0.427731
0.450454
0.473571
0.496946
0.520438
0.543907
0.567209
0.590206
0.612759
0.634736
0.656011
0.676466
0.695991
0.714485
0.731859
0.748035
0.762944
0.776531
0.788752
0.799573
0.80897
0.816931
0.823452
0.828559
0.832272
0.834606
0.835569
0.83526
0.833689
0.830914
0.826992
0.821979
0.815937
0.808927
0.801013
0.792263
0.782743
0.772521
0.761663
0.750231
0.738288
0.725896
0.713116
0.700013
0.686645
0.673071
0.659341
0.645497
0.63157
0.617597
0.603617
0.58967
0.575786
0.561995
0.548311
0.534744
0.521312
0.508047
0.494971
0.482106
0.469465
0.45706
0.444898
0.432991
0.421346
0.409973
0.398877
0.388061
0.377524
0.367269
0.357295
0.347605
0.338196
0.329069
0.320224
0.311658
0.30337
0.295359
0.287619
0.280147
0.27294
0.265993
0.259302
0.252861
0.246667
0.240715
0.235002
0.229521
0.224267
0.219235
0.214419
0.209813
0.205413
0.201211
0.197202
0.193379
0.189739
0.186275
0.182982
0.179856
0.176891
0.174085
0.171431
0.168926
0.166567
0.164353
0.162282
0.160355
0.158574
0.156943
0.155476
0.154187
0.153104
0.152263
0.151725
0.151572
0.151932
0.15305
0.155318
0.159587
0.166798
0.179893
0.199359
0.231402
0
0.0457461
0.093332
0.127274
0.149198
0.160772
0.167251
0.171331
0.174204
0.176341
0.177827
0.178579
0.178511
0.17762
0.176001
0.173829
0.171319
0.168684
0.166107
0.163731
0.161667
0.160003
0.158793
0.158075
0.157873
0.158198
0.159061
0.160467
0.162424
0.164946
0.168049
0.171756
0.176097
0.181109
0.186829
0.193304
0.200585
0.20873
0.217799
0.227855
0.23896
0.251176
0.264559
0.27916
0.295025
0.312186
0.330669
0.350484
0.371627
0.39408
0.417806
0.442742
0.4688
0.495857
0.523775
0.552418
0.581647
0.611317
0.641271
0.671344
0.701368
0.731171
0.760583
0.789436
0.817567
0.84482
0.871048
0.896112
0.919888
0.942259
0.963126
0.9824
1.00001
1.01589
1.03
1.04231
1.05279
1.06144
1.06825
1.07329
1.07652
1.07804
1.07783
1.07604
1.07266
1.06778
1.06146
1.05378
1.04482
1.03466
1.02338
1.01106
0.997793
0.983656
0.968738
0.953119
0.936886
0.92012
0.902897
0.885291
0.867368
0.849187
0.830807
0.812284
0.793668
0.775006
0.75635
0.73775
0.719245
0.700865
0.682627
0.664548
0.646654
0.628977
0.611548
0.594389
0.577519
0.560955
0.544709
0.528795
0.513224
0.498009
0.483154
0.468663
0.454539
0.440782
0.427395
0.414378
0.401731
0.389454
0.377544
0.366
0.354818
0.343996
0.33353
0.323415
0.313647
0.304219
0.295126
0.28636
0.277918
0.269792
0.261976
0.254464
0.247248
0.24032
0.233674
0.2273
0.221193
0.215344
0.209747
0.204393
0.199274
0.194384
0.189715
0.185261
0.181015
0.176972
0.173124
0.169468
0.165999
0.162715
0.159614
0.156695
0.153961
0.151418
0.149077
0.146957
0.145085
0.143501
0.142269
0.141487
0.1413
0.141963
0.143863
0.147739
0.154399
0.166016
0.182604
0.207234
0
0.0635347
0.109766
0.146059
0.169303
0.179982
0.18374
0.183789
0.181846
0.178907
0.175512
0.17192
0.16825
0.164584
0.161009
0.157617
0.154511
0.151782
0.149527
0.147824
0.146733
0.146282
0.146505
0.147419
0.149038
0.151374
0.154434
0.158236
0.162801
0.168146
0.174294
0.181272
0.189112
0.197857
0.207557
0.218268
0.230049
0.242965
0.257082
0.272466
0.289183
0.307293
0.326849
0.347896
0.370466
0.394578
0.420238
0.447433
0.476131
0.506281
0.537808
0.570612
0.604569
0.639529
0.675326
0.71179
0.748744
0.786006
0.823384
0.860682
0.8977
0.934236
0.970092
1.00507
1.039
1.07168
1.10296
1.13269
1.16072
1.18692
1.2112
1.23345
1.2536
1.27158
1.28737
1.30092
1.31222
1.32127
1.3281
1.33273
1.33518
1.33553
1.33383
1.33019
1.32466
1.31732
1.30826
1.29757
1.28534
1.27168
1.25668
1.24046
1.22312
1.20476
1.18549
1.16541
1.14461
1.1232
1.10124
1.07883
1.05604
1.03295
1.00964
0.986168
0.962597
0.938988
0.915403
0.891897
0.868519
0.845302
0.822275
0.799462
0.776896
0.754611
0.732642
0.711014
0.689751
0.668873
0.648397
0.62834
0.608719
0.589545
0.570824
0.552561
0.53476
0.517423
0.500552
0.484148
0.468211
0.452739
0.437731
0.423183
0.409092
0.395454
0.382264
0.369515
0.3572
0.345313
0.333845
0.322788
0.312136
0.301881
0.292013
0.282525
0.273406
0.264647
0.256239
0.248171
0.240435
0.23302
0.225917
0.219116
0.212608
0.206385
0.200436
0.194754
0.18933
0.184156
0.179226
0.174533
0.170072
0.165838
0.16183
0.158046
0.154489
0.151164
0.148084
0.145267
0.142745
0.14056
0.138778
0.137505
0.136893
0.137191
0.138768
0.14226
0.148314
0.158518
0.172441
0.191751
0
0.0783273
0.114491
0.148958
0.171615
0.181474
0.183617
0.181359
0.176633
0.170723
0.164455
0.158316
0.152573
0.147358
0.14274
0.138783
0.135538
0.133048
0.131341
0.13044
0.130368
0.131146
0.132789
0.135312
0.138733
0.143068
0.148345
0.154588
0.161823
0.170084
0.179409
0.189841
0.201429
0.214227
0.228297
0.243704
0.260515
0.278801
0.298632
0.320072
0.343184
0.36802
0.394621
0.423017
0.453221
0.485228
0.519013
0.554532
0.591717
0.630476
0.670691
0.712222
0.754903
0.798548
0.842954
0.88791
0.933197
0.978593
1.02387
1.06879
1.11313
1.15665
1.19914
1.24036
1.28013
1.31823
1.3545
1.38876
1.42086
1.45068
1.4781
1.50303
1.52539
1.54512
1.56219
1.57658
1.58828
1.59731
1.6037
1.60746
1.60867
1.6074
1.60374
1.59781
1.58967
1.57941
1.56716
1.55301
1.53709
1.51952
1.50042
1.47992
1.45815
1.43521
1.41124
1.38634
1.36062
1.33418
1.30714
1.27958
1.2516
1.22329
1.19474
1.16602
1.13721
1.10837
1.07959
1.05092
1.02241
0.99411
0.96606
0.938291
0.91084
0.883748
0.857048
0.830772
0.804946
0.779594
0.754738
0.730399
0.706595
0.683339
0.660637
0.638497
0.616921
0.595914
0.575477
0.555613
0.536319
0.517594
0.499436
0.48184
0.464801
0.448314
0.432372
0.416967
0.402091
0.387735
0.373888
0.360542
0.347687
0.335313
0.32341
0.311965
0.300968
0.290407
0.280269
0.270544
0.261218
0.252281
0.243719
0.235523
0.22768
0.220179
0.213009
0.206159
0.19962
0.193381
0.187435
0.181772
0.176388
0.171275
0.166432
0.161855
0.157548
0.153517
0.149775
0.146342
0.143248
0.14054
0.138287
0.136593
0.135613
0.135584
0.136839
0.139914
0.145301
0.154148
0.16567
0.180948
0
0.0903775
0.109839
0.138804
0.159095
0.16787
0.169144
0.165955
0.160188
0.153199
0.145894
0.138842
0.132386
0.126732
0.121983
0.118181
0.115341
0.113474
0.112594
0.11271
0.113834
0.11598
0.119168
0.123425
0.128775
0.135264
0.142927
0.151807
0.161952
0.173412
0.186243
0.200508
0.216277
0.233621
0.252616
0.273339
0.295865
0.320271
0.346623
0.374985
0.405405
0.437922
0.472556
0.509311
0.54817
0.589091
0.63201
0.676839
0.723464
0.771741
0.821506
0.872569
0.924716
0.977716
1.03132
1.08528
1.13932
1.19319
1.24662
1.29934
1.35108
1.4016
1.45064
1.49797
1.54337
1.58662
1.62754
1.66596
1.70172
1.73468
1.76475
1.79183
1.81585
1.83676
1.85453
1.86917
1.88067
1.88907
1.8944
1.89671
1.89608
1.89262
1.88643
1.87764
1.86635
1.85267
1.83671
1.81863
1.79855
1.77663
1.753
1.72779
1.70116
1.67323
1.64414
1.61402
1.58299
1.55118
1.51869
1.48565
1.45216
1.41832
1.38424
1.34999
1.31567
1.28135
1.24712
1.21304
1.17918
1.14559
1.11231
1.0794
1.04688
1.01481
0.983221
0.952147
0.921618
0.891662
0.862306
0.833573
0.805483
0.778048
0.751277
0.725178
0.699754
0.67501
0.650949
0.62757
0.604873
0.582855
0.561511
0.540838
0.520828
0.501474
0.482768
0.464699
0.447258
0.430432
0.414211
0.398583
0.383538
0.369061
0.35514
0.341761
0.32891
0.316573
0.304736
0.293384
0.282503
0.272079
0.262097
0.252544
0.243406
0.234669
0.226321
0.218348
0.210739
0.203483
0.196568
0.189986
0.183728
0.177789
0.172163
0.166849
0.161847
0.157165
0.152815
0.148817
0.145205
0.142023
0.139343
0.137267
0.135943
0.13559
0.1365
0.139115
0.143786
0.151338
0.160724
0.172863
0
0.100614
0.0992574
0.120124
0.136584
0.143819
0.144577
0.141334
0.135718
0.128945
0.12192
0.115231
0.109242
0.10415
0.100068
0.097057
0.0951425
0.0943363
0.0946473
0.0960893
0.0986837
0.102461
0.107457
0.113715
0.1213
0.13026
0.140659
0.152565
0.166046
0.181183
0.198059
0.216763
0.237384
0.260015
0.284744
0.31166
0.340844
0.372367
0.406292
0.442665
0.481517
0.522855
0.56667
0.612923
0.661552
0.712469
0.765555
0.820668
0.877633
0.936252
0.996303
1.05754
1.1197
1.18249
1.24563
1.30881
1.37173
1.43409
1.49559
1.55592
1.61481
1.67197
1.72714
1.78007
1.83053
1.87831
1.92322
1.96508
2.00375
2.0391
2.07102
2.09945
2.12431
2.14558
2.16325
2.17733
2.18784
2.19483
2.19834
2.19845
2.19528
2.18894
2.17956
2.16729
2.15224
2.13453
2.11433
2.09178
2.06704
2.04026
2.0116
1.98123
1.9493
1.91596
1.88136
1.84565
1.80896
1.77143
1.7332
1.69438
1.6551
1.61548
1.57561
1.53561
1.49556
1.45556
1.41569
1.37603
1.33665
1.29762
1.25898
1.22078
1.18308
1.14592
1.10934
1.07337
1.03806
1.00342
0.969499
0.936314
0.903884
0.872224
0.841344
0.811251
0.78195
0.753447
0.725743
0.698837
0.672729
0.647413
0.622885
0.599138
0.576165
0.553955
0.532499
0.511784
0.491798
0.472526
0.453957
0.436076
0.418869
0.402322
0.386417
0.37114
0.356472
0.342398
0.328901
0.315963
0.303568
0.291699
0.28034
0.269474
0.259085
0.249158
0.239676
0.230626
0.221994
0.213765
0.205928
0.198473
0.191388
0.184667
0.178304
0.172296
0.166644
0.161354
0.156439
0.151918
0.147823
0.144202
0.141124
0.138686
0.137027
0.136341
0.136878
0.13899
0.142911
0.149234
0.156743
0.166389
0
0.10994
0.0860497
0.0974321
0.10919
0.114445
0.114677
0.111708
0.106854
0.101148
0.0953175
0.0898801
0.0851709
0.0813972
0.0786743
0.077065
0.0766065
0.0773273
0.0792578
0.0824358
0.0869067
0.0927269
0.0999673
0.108705
0.119013
0.130982
0.144701
0.160274
0.177807
0.197411
0.219202
0.243293
0.269796
0.298818
0.330458
0.364807
0.401939
0.441913
0.484768
0.53052
0.579162
0.630659
0.684946
0.74193
0.801488
0.863468
0.927687
0.993932
1.06196
1.13152
1.20232
1.27406
1.34642
1.41905
1.49164
1.56383
1.63528
1.70567
1.77467
1.84195
1.90723
1.9702
2.03059
2.08817
2.14268
2.19394
2.24174
2.28594
2.3264
2.36301
2.39567
2.42433
2.44895
2.4695
2.48602
2.49851
2.50703
2.51165
2.51243
2.50948
2.50295
2.49295
2.47962
2.46317
2.44367
2.42131
2.39624
2.36864
2.33868
2.30654
2.2724
2.23642
2.19878
2.15966
2.1192
2.07758
2.03494
1.99143
1.9472
1.90238
1.85711
1.81152
1.76571
1.7198
1.6739
1.6281
1.58249
1.53716
1.49219
1.44764
1.40358
1.36006
1.31713
1.27485
1.23326
1.19239
1.15228
1.11297
1.07449
1.03687
1.00011
0.964251
0.929287
0.89523
0.862086
0.82986
0.798552
0.768162
0.738686
0.710119
0.682455
0.655685
0.6298
0.604788
0.580636
0.55733
0.534854
0.513193
0.492333
0.472257
0.452947
0.434387
0.416558
0.399439
0.383013
0.36726
0.352159
0.337693
0.323841
0.310585
0.297904
0.28578
0.274195
0.263131
0.25257
0.242495
0.232891
0.223741
0.215032
0.206751
0.198887
0.191432
0.184377
0.17772
0.17146
0.165603
0.16016
0.155151
0.150607
0.146574
0.143116
0.140327
0.138331
0.137298
0.137434
0.139012
0.142171
0.147338
0.153208
0.160841
0
0.118696
0.0727186
0.0743602
0.0810463
0.0840837
0.0837738
0.081229
0.0774192
0.0731296
0.0689631
0.0653326
0.0625057
0.0606484
0.0598634
0.0602199
0.0617729
0.0645755
0.0686863
0.0741785
0.0811393
0.0896633
0.0998467
0.111799
0.125641
0.141498
0.159513
0.179828
0.202589
0.22794
0.256024
0.286972
0.32091
0.357948
0.398179
0.441674
0.488484
0.538631
0.592108
0.648878
0.708871
0.771985
0.838085
0.907004
0.97854
1.05247
1.12852
1.20643
1.28586
1.36651
1.44802
1.53004
1.6122
1.69412
1.77543
1.85577
1.93477
2.01207
2.08735
2.16029
2.23056
2.2979
2.36203
2.42272
2.47975
2.53292
2.58207
2.62707
2.66778
2.70414
2.73607
2.76353
2.78651
2.80503
2.8191
2.82879
2.83417
2.83531
2.83231
2.82534
2.8145
2.79995
2.78185
2.76047
2.73579
2.7081
2.67755
2.64434
2.60866
2.57069
2.53064
2.48868
2.445
2.39978
2.3532
2.30543
2.25664
2.20697
2.1566
2.10567
2.05432
2.00268
1.95087
1.89902
1.84724
1.79563
1.74429
1.69331
1.64277
1.59276
1.54332
1.49454
1.44646
1.39913
1.3526
1.30691
1.2621
1.21821
1.17527
1.1333
1.09233
1.05237
1.01342
0.975509
0.938629
0.902788
0.867984
0.834217
0.801481
0.76977
0.739075
0.709388
0.680695
0.652984
0.626237
0.600439
0.575572
0.55162
0.528565
0.506387
0.485067
0.464585
0.444918
0.426046
0.407945
0.390595
0.373973
0.358057
0.342825
0.328255
0.314326
0.301016
0.288304
0.27617
0.264594
0.253558
0.243043
0.233031
0.223508
0.214458
0.205869
0.19773
0.190034
0.182774
0.175951
0.169568
0.163637
0.158175
0.153212
0.14879
0.14497
0.141837
0.139501
0.138108
0.137821
0.138846
0.141246
0.145338
0.149783
0.155774
0
0.127921
0.0614775
0.0538372
0.0556302
0.0564046
0.0554056
0.0532158
0.0505025
0.0478312
0.0456249
0.044176
0.0436777
0.0442528
0.0459858
0.0489455
0.0532056
0.0588485
0.0659757
0.0746904
0.0851141
0.097383
0.111647
0.128068
0.146818
0.168086
0.192054
0.218907
0.248819
0.281956
0.318471
0.358496
0.402142
0.449494
0.500606
0.555502
0.614171
0.676567
0.742605
0.812166
0.885092
0.961191
1.04024
1.12198
1.20612
1.29236
1.38035
1.46975
1.56019
1.65128
1.74263
1.83385
1.92453
2.01428
2.10271
2.18945
2.27413
2.3564
2.43593
2.51242
2.58557
2.65512
2.72083
2.78249
2.8399
2.8929
2.94135
2.98515
3.0242
3.05845
3.08786
3.11242
3.13214
3.14705
3.15722
3.16271
3.16362
3.16003
3.15217
3.14009
3.12396
3.10395
3.08029
3.05316
3.02262
2.98897
2.95239
2.91308
2.87124
2.82707
2.78077
2.73255
2.68259
2.6311
2.57825
2.52423
2.4692
2.41334
2.35681
2.29978
2.24237
2.18474
2.12701
2.06932
2.01177
1.95447
1.89754
1.84106
1.78512
1.7298
1.67517
1.6213
1.56825
1.51606
1.46479
1.41448
1.36516
1.31688
1.26968
1.22357
1.17857
1.1347
1.09197
1.0504
1.00997
0.970699
0.932583
0.895619
0.859801
0.82512
0.791565
0.759126
0.727788
0.697535
0.668348
0.640208
0.613097
0.586996
0.561883
0.537738
0.514538
0.492259
0.470878
0.450369
0.43071
0.411873
0.393836
0.376574
0.360061
0.344274
0.329189
0.314782
0.301029
0.287908
0.275398
0.263477
0.252125
0.241322
0.231052
0.221298
0.212045
0.203282
0.194999
0.187189
0.179852
0.172989
0.16661
0.160731
0.15538
0.150595
0.146431
0.142962
0.140286
0.138523
0.137801
0.138268
0.13993
0.143031
0.146239
0.150879
0
0.136493
0.0529034
0.0372423
0.0347261
0.0335164
0.0319928
0.0302778
0.0287747
0.0278705
0.0278643
0.0289568
0.0312756
0.034909
0.0399293
0.0464158
0.0544515
0.0641459
0.0756265
0.0890505
0.104592
0.122445
0.142819
0.165934
0.192028
0.221322
0.254031
0.290354
0.330467
0.374525
0.422646
0.474919
0.531393
0.59208
0.656948
0.725924
0.798894
0.875703
0.956156
1.04002
1.12704
1.21692
1.30933
1.40393
1.50035
1.59821
1.69713
1.79669
1.8965
1.99614
2.0952
2.19328
2.28997
2.38489
2.47766
2.56793
2.65536
2.73962
2.82043
2.89751
2.9706
3.03948
3.10393
3.16379
3.2189
3.26914
3.3144
3.3546
3.3897
3.41967
3.4445
3.46421
3.47884
3.48844
3.4931
3.49291
3.48795
3.47848
3.46454
3.4463
3.42394
3.39762
3.36766
3.33406
3.29708
3.25697
3.21392
3.16814
3.11984
3.06923
3.01651
2.9619
2.9056
2.8478
2.78869
2.72846
2.66729
2.60535
2.54282
2.47984
2.41658
2.35318
2.28976
2.22647
2.16341
2.10071
2.03847
1.97678
1.91574
1.85543
1.79592
1.73728
1.67957
1.62284
1.56714
1.51252
1.45901
1.40666
1.3555
1.30555
1.25682
1.20934
1.16312
1.11816
1.07446
1.03203
0.990868
0.950965
0.912315
0.874908
0.838731
0.803771
0.770011
0.737432
0.706014
0.675736
0.646577
0.618516
0.59153
0.565594
0.540684
0.516773
0.493835
0.471842
0.450768
0.430587
0.411269
0.39279
0.37512
0.358235
0.342108
0.326713
0.312024
0.298017
0.284667
0.271953
0.259851
0.24834
0.237402
0.227018
0.217173
0.207852
0.199046
0.190745
0.182948
0.175655
0.168873
0.162618
0.156912
0.151791
0.147304
0.143513
0.140501
0.138367
0.137207
0.137125
0.138082
0.140278
0.142419
0.145939
0
0.143907
0.0472525
0.0251766
0.0193925
0.0168274
0.0151918
0.0142749
0.0143006
0.0155435
0.0182296
0.022512
0.0284985
0.0362662
0.0458929
0.0574683
0.0711132
0.0869784
0.105246
0.126124
0.149844
0.176648
0.206801
0.240568
0.278188
0.319884
0.365843
0.416219
0.471122
0.530612
0.594704
0.663362
0.736503
0.813995
0.895664
0.98129
1.07062
1.16336
1.2592
1.35779
1.45877
1.56176
1.66638
1.77221
1.87885
1.9859
2.09292
2.19953
2.30531
2.40987
2.51283
2.61381
2.71247
2.80845
2.90143
2.99111
3.07719
3.15942
3.23756
3.31137
3.38066
3.44525
3.50497
3.55971
3.60935
3.65382
3.69303
3.72697
3.7556
3.77893
3.79698
3.80981
3.81745
3.82003
3.81753
3.81022
3.7982
3.78159
3.76055
3.73522
3.70582
3.67253
3.63561
3.59503
3.5512
3.50429
3.45453
3.40211
3.34725
3.29016
3.23105
3.17013
3.1076
3.04366
2.97851
2.91232
2.84529
2.77758
2.70937
2.64082
2.57209
2.5033
2.43461
2.36614
2.29802
2.23035
2.16325
2.09681
2.03113
1.96628
1.90235
1.83939
1.77748
1.71665
1.65697
1.59847
1.54121
1.48521
1.43052
1.37713
1.32509
1.27439
1.22506
1.17709
1.13049
1.08526
1.04139
0.998887
0.957731
0.917912
0.879419
0.842233
0.806335
0.771706
0.738322
0.706162
0.675202
0.645419
0.616788
0.58928
0.56287
0.537528
0.513226
0.489935
0.467625
0.446267
0.425832
0.40629
0.387613
0.369772
0.352737
0.336483
0.320981
0.306204
0.292127
0.278724
0.265973
0.25385
0.242334
0.231406
0.221048
0.211246
0.201987
0.193261
0.185065
0.177397
0.170263
0.163675
0.157653
0.152228
0.147441
0.143346
0.14001
0.137512
0.135922
0.135309
0.135607
0.136985
0.138207
0.1408
0
0.149479
0.0439918
0.017561
0.00992933
0.00705533
0.00617657
0.00687433
0.00929934
0.0137154
0.0203584
0.0294215
0.0410539
0.0553883
0.0725599
0.0927227
0.116059
0.142777
0.173104
0.20728
0.245553
0.288172
0.33536
0.387285
0.444109
0.505913
0.57272
0.644491
0.721125
0.802467
0.888308
0.978393
1.07243
1.17008
1.27099
1.37479
1.48109
1.58949
1.69957
1.81095
1.92321
2.03596
2.1488
2.26133
2.37319
2.48401
2.59342
2.70111
2.80674
2.91001
3.01061
3.10827
3.20272
3.29369
3.38094
3.46424
3.54339
3.61819
3.68847
3.75408
3.81487
3.8707
3.92146
3.9671
4.00755
4.04275
4.07267
4.09731
4.11666
4.13078
4.13967
4.14345
4.1421
4.13575
4.12465
4.1088
4.08837
4.0635
4.03435
4.0011
3.96392
3.92315
3.87867
3.83081
3.77985
3.726
3.66943
3.61036
3.54899
3.48553
3.42019
3.35318
3.28469
3.21492
3.14405
3.07228
2.99978
2.92674
2.85331
2.77965
2.70593
2.63227
2.55882
2.4857
2.41304
2.34095
2.26954
2.1989
2.12912
2.06029
1.99247
1.92575
1.86016
1.79577
1.73263
1.67078
1.61027
1.55113
1.49338
1.43705
1.38215
1.32869
1.27669
1.22615
1.17707
1.12945
1.08329
1.03857
0.995278
0.953412
0.912951
0.873876
0.836167
0.7998
0.764751
0.730998
0.698515
0.667276
0.637254
0.60842
0.580744
0.554195
0.528743
0.504357
0.481006
0.458658
0.437282
0.416848
0.397323
0.378678
0.360883
0.343908
0.327724
0.312303
0.297617
0.283639
0.270345
0.25771
0.245712
0.234329
0.223544
0.213339
0.203701
0.19462
0.186087
0.178103
0.170668
0.163794
0.157497
0.151801
0.146742
0.142364
0.13872
0.135873
0.13387
0.132755
0.132445
0.133092
0.133528
0.135361
0
0.151349
0.0421337
0.0139147
0.00652395
0.00507507
0.00657308
0.0105689
0.0172882
0.0271238
0.0404879
0.0577484
0.0792314
0.105225
0.135993
0.171773
0.212784
0.259224
0.311244
0.368973
0.432478
0.501741
0.576727
0.657362
0.74341
0.834578
0.930497
1.03075
1.13489
1.24244
1.35292
1.46584
1.58074
1.69713
1.81457
1.93263
2.05091
2.16902
2.28662
2.40338
2.51895
2.63304
2.74538
2.8557
2.96377
3.06937
3.17229
3.27234
3.36933
3.46307
3.55339
3.64014
3.72313
3.80221
3.87723
3.94804
4.0145
4.0765
4.13394
4.18672
4.23472
4.27786
4.31607
4.34933
4.37758
4.40083
4.41904
4.43222
4.44038
4.44364
4.44182
4.43524
4.42396
4.40799
4.38753
4.36267
4.33353
4.30024
4.26297
4.22188
4.17721
4.12901
4.07734
4.02258
3.96493
3.9046
3.84175
3.7766
3.70935
3.6402
3.56935
3.497
3.42334
3.34856
3.27284
3.19635
3.11928
3.0418
2.96406
2.88623
2.80844
2.73083
2.65355
2.57671
2.50044
2.42484
2.35001
2.27606
2.20307
2.13112
2.06028
1.99061
1.92217
1.85502
1.78921
1.72477
1.66176
1.60019
1.5401
1.4815
1.42441
1.36883
1.31479
1.26228
1.2113
1.16185
1.11393
1.06751
1.0226
0.979168
0.937207
0.896694
0.857605
0.819916
0.783602
0.74864
0.715002
0.68266
0.651585
0.621746
0.593112
0.565652
0.539332
0.51412
0.489984
0.466891
0.444807
0.423701
0.40354
0.384293
0.365928
0.348414
0.33172
0.315817
0.300676
0.286269
0.27257
0.259553
0.247195
0.235474
0.224369
0.213863
0.203941
0.194591
0.185804
0.177577
0.16991
0.16281
0.15629
0.15037
0.145079
0.140452
0.136532
0.133364
0.13098
0.129404
0.128548
0.128554
0.128321
0.129545
0