/*--------------------------------*- C++ -*----------------------------------*\
  =========                 |
  \\      /  F ield         | OpenFOAM: The Open Source CFD Toolbox
   \\    /   O peration     | Website:  https://openfoam.org
    \\  /    A nd           | Version:  10
     \\/     M anipulation  |
\*---------------------------------------------------------------------------*/
FoamFile
{
    format      ascii;
    class       volVectorField;
    location    "200";
    object      U;
}
// * * * * * * * * * * * * * * * * * * * * * * * * * * * * * * * * * * * * * //

dimensions      [0 1 -1 0 0 0 0];

internalField   nonuniform List<vector> 
12225
(
(0.0792886 -0.0692418 0)
(0.149124 -0.0159589 0)
(0.200772 -0.0094622 0)
(0.247507 -0.00839726 0)
(0.288599 -0.00759159 0)
(0.324107 -0.00662476 0)
(0.354179 -0.00574293 0)
(0.379632 -0.00499985 0)
(0.401336 -0.00438143 0)
(0.419989 -0.0038716 0)
(0.436166 -0.00345616 0)
(0.450362 -0.00312695 0)
(0.463034 -0.00288643 0)
(0.474635 -0.00275712 0)
(0.485842 -0.00280266 0)
(0.497503 -0.00328739 0)
(0.513074 -0.00453042 0)
(0.534213 -0.0139198 0)
(0.204527 -0.0223796 0)
(0.255387 -0.0233978 0)
(0.323198 -0.0203987 0)
(0.380088 -0.0182284 0)
(0.428548 -0.0164635 0)
(0.470802 -0.0146322 0)
(0.50743 -0.0129763 0)
(0.539235 -0.0115554 0)
(0.567019 -0.0103555 0)
(0.591447 -0.00935523 0)
(0.613088 -0.00853481 0)
(0.632438 -0.00788601 0)
(0.649956 -0.00742229 0)
(0.666092 -0.00720148 0)
(0.681424 -0.0073799 0)
(0.696592 -0.00843349 0)
(0.713172 -0.0116597 0)
(0.729476 -0.0210717 0)
(0.296251 -0.0313124 0)
(0.338013 -0.0373662 0)
(0.405694 -0.033417 0)
(0.461986 -0.0300548 0)
(0.509957 -0.0271639 0)
(0.55206 -0.0243866 0)
(0.588932 -0.0219023 0)
(0.621307 -0.0197519 0)
(0.649876 -0.0179189 0)
(0.675225 -0.0163771 0)
(0.697862 -0.0151023 0)
(0.718241 -0.0140865 0)
(0.736776 -0.0133513 0)
(0.753861 -0.0129773 0)
(0.769933 -0.0131659 0)
(0.785343 -0.0144353 0)
(0.8005 -0.0179189 0)
(0.813161 -0.0257951 0)
(0.391169 -0.0438232 0)
(0.422168 -0.0520745 0)
(0.482241 -0.0478637 0)
(0.53418 -0.0433708 0)
(0.579337 -0.039279 0)
(0.619374 -0.0354852 0)
(0.654763 -0.0321016 0)
(0.686117 -0.0291549 0)
(0.714008 -0.0266266 0)
(0.738925 -0.0244854 0)
(0.761309 -0.0227032 0)
(0.781555 -0.0212708 0)
(0.800021 -0.0202138 0)
(0.817032 -0.0196219 0)
(0.832897 -0.0197008 0)
(0.847751 -0.0208995 0)
(0.861517 -0.0239753 0)
(0.87222 -0.0296651 0)
(0.492395 -0.0514218 0)
(0.512541 -0.0647903 0)
(0.561571 -0.0619111 0)
(0.60704 -0.0567989 0)
(0.647894 -0.0516962 0)
(0.684707 -0.0469793 0)
(0.717616 -0.0427508 0)
(0.747051 -0.0390414 0)
(0.773443 -0.0358364 0)
(0.797179 -0.0331033 0)
(0.818619 -0.0308124 0)
(0.838091 -0.0289535 0)
(0.855892 -0.0275514 0)
(0.872274 -0.0266902 0)
(0.88744 -0.0265467 0)
(0.901393 -0.0274475 0)
(0.913924 -0.0297945 0)
(0.923421 -0.0335701 0)
(0.60036 -0.0545068 0)
(0.61032 -0.074592 0)
(0.646787 -0.0742692 0)
(0.684396 -0.0693193 0)
(0.719741 -0.0636125 0)
(0.75239 -0.0581946 0)
(0.78203 -0.0532654 0)
(0.808849 -0.048895 0)
(0.833115 -0.0450865 0)
(0.855101 -0.0418133 0)
(0.875077 -0.0390483 0)
(0.893299 -0.0367811 0)
(0.909995 -0.0350318 0)
(0.925349 -0.0338685 0)
(0.939481 -0.0334212 0)
(0.952327 -0.0338903 0)
(0.963694 -0.0354199 0)
(0.972305 -0.0376922 0)
(0.714676 -0.0541881 0)
(0.715675 -0.0811189 0)
(0.739307 -0.084222 0)
(0.768051 -0.0802869 0)
(0.796936 -0.0745176 0)
(0.824593 -0.0687053 0)
(0.850267 -0.0632794 0)
(0.873855 -0.058392 0)
(0.895447 -0.0540849 0)
(0.915186 -0.0503489 0)
(0.933248 -0.0471649 0)
(0.949807 -0.0445239 0)
(0.965022 -0.0424396 0)
(0.979015 -0.0409587 0)
(0.991845 -0.0401605 0)
(1.00342 -0.0401402 0)
(1.01361 -0.0408805 0)
(1.02142 -0.0419908 0)
(0.834397 -0.0513139 0)
(0.828081 -0.0842153 0)
(0.839659 -0.0912736 0)
(0.858868 -0.0891369 0)
(0.880629 -0.0839265 0)
(0.902577 -0.078096 0)
(0.923659 -0.0724302 0)
(0.943458 -0.0672103 0)
(0.961871 -0.0625405 0)
(0.978907 -0.0584434 0)
(0.994636 -0.054915 0)
(1.00915 -0.0519513 0)
(1.02255 -0.0495598 0)
(1.03488 -0.0477655 0)
(1.04616 -0.0466029 0)
(1.05631 -0.04609 0)
(1.06526 -0.0461233 0)
(1.07218 -0.0463411 0)
(0.958155 -0.0466635 0)
(0.946515 -0.0839416 0)
(0.947553 -0.0950673 0)
(0.957163 -0.0953607 0)
(0.971341 -0.0913138 0)
(0.98705 -0.0859076 0)
(1.003 -0.0803052 0)
(1.01851 -0.0749786 0)
(1.03328 -0.0701157 0)
(1.04719 -0.065786 0)
(1.0602 -0.0620105 0)
(1.07232 -0.0587949 0)
(1.08357 -0.0561436 0)
(1.09396 -0.0540637 0)
(1.10347 -0.0525552 0)
(1.11202 -0.051587 0)
(1.1196 -0.0510222 0)
(1.12549 -0.050564 0)
(1.08433 -0.0410011 0)
(1.06953 -0.0806088 0)
(1.06197 -0.0954509 0)
(1.06267 -0.0985364 0)
(1.06906 -0.0961742 0)
(1.07824 -0.0916475 0)
(1.08864 -0.0864516 0)
(1.09945 -0.0812807 0)
(1.11018 -0.0764268 0)
(1.12058 -0.0720212 0)
(1.13051 -0.0681201 0)
(1.1399 -0.0647457 0)
(1.14871 -0.0619042 0)
(1.15689 -0.0595917 0)
(1.16441 -0.0577863 0)
(1.17118 -0.0564317 0)
(1.17725 -0.0553902 0)
(1.18191 -0.0544334 0)
(1.21121 -0.0349817 0)
(1.19524 -0.0747553 0)
(1.18132 -0.0925166 0)
(1.17432 -0.0984056 0)
(1.17324 -0.0980943 0)
(1.17584 -0.0948484 0)
(1.18049 -0.0904094 0)
(1.1863 -0.0856729 0)
(1.19267 -0.0810535 0)
(1.19924 -0.0767531 0)
(1.20578 -0.0728719 0)
(1.21215 -0.069455 0)
(1.21825 -0.0665168 0)
(1.22399 -0.0640503 0)
(1.22931 -0.0620245 0)
(1.23412 -0.0603759 0)
(1.23849 -0.0589841 0)
(1.24172 -0.0576809 0)
(1.3266 -0.0294848 0)
(1.31093 -0.0677494 0)
(1.29338 -0.0871608 0)
(1.28073 -0.0952856 0)
(1.27358 -0.0969506 0)
(1.2704 -0.0951374 0)
(1.26982 -0.0916678 0)
(1.27094 -0.087574 0)
(1.27314 -0.0833774 0)
(1.27599 -0.0793479 0)
(1.2792 -0.0756305 0)
(1.28258 -0.0722966 0)
(1.28599 -0.0693735 0)
(1.2893 -0.0668583 0)
(1.29242 -0.0647211 0)
(1.29528 -0.0629029 0)
(1.29792 -0.0613022 0)
(1.29965 -0.0598146 0)
(1.43841 -0.0243287 0)
(1.42409 -0.0598631 0)
(1.40477 -0.0799276 0)
(1.38789 -0.089778 0)
(1.37564 -0.0932896 0)
(1.36723 -0.0929921 0)
(1.3617 -0.0906507 0)
(1.35824 -0.087375 0)
(1.35628 -0.0837641 0)
(1.35536 -0.0801531 0)
(1.35517 -0.076729 0)
(1.35547 -0.0735907 0)
(1.35607 -0.0707822 0)
(1.35685 -0.0683102 0)
(1.35768 -0.0661517 0)
(1.35848 -0.0642588 0)
(1.35929 -0.0625502 0)
(1.35941 -0.0609814 0)
(1.56063 -0.0191984 0)
(1.54857 -0.050261 0)
(1.52921 -0.0697434 0)
(1.5094 -0.080682 0)
(1.49278 -0.0858763 0)
(1.47942 -0.0872272 0)
(1.46881 -0.0862777 0)
(1.46046 -0.0841076 0)
(1.45392 -0.0813513 0)
(1.44877 -0.0783983 0)
(1.44468 -0.0754761 0)
(1.44141 -0.0727137 0)
(1.43875 -0.070176 0)
(1.43655 -0.0678851 0)
(1.43467 -0.0658321 0)
(1.43302 -0.0639857 0)
(1.43161 -0.0622925 0)
(1.42977 -0.0607423 0)
(1.68899 -0.0143831 0)
(1.67948 -0.0394638 0)
(1.66175 -0.0567968 0)
(1.64088 -0.0676563 0)
(1.6213 -0.0738478 0)
(1.60395 -0.0766346 0)
(1.58879 -0.07714 0)
(1.57573 -0.0762618 0)
(1.56455 -0.0746069 0)
(1.55496 -0.0725688 0)
(1.54669 -0.0703944 0)
(1.53951 -0.0682352 0)
(1.53323 -0.0661769 0)
(1.52768 -0.0642601 0)
(1.52272 -0.0624942 0)
(1.51826 -0.0608684 0)
(1.51427 -0.0593591 0)
(1.51013 -0.0579748 0)
(1.81513 -0.00993061 0)
(1.80781 -0.028129 0)
(1.79263 -0.0417019 0)
(1.77253 -0.050959 0)
(1.75188 -0.0569657 0)
(1.73218 -0.0604354 0)
(1.71379 -0.0620207 0)
(1.69695 -0.0623376 0)
(1.68172 -0.061853 0)
(1.66804 -0.0608897 0)
(1.65575 -0.0596682 0)
(1.6447 -0.0583359 0)
(1.63473 -0.0569859 0)
(1.6257 -0.0556715 0)
(1.6175 -0.0544185 0)
(1.61003 -0.0532356 0)
(1.60323 -0.0521232 0)
(1.5966 -0.0511048 0)
(1.924 -0.00568359 0)
(1.91819 -0.0165258 0)
(1.90545 -0.0251041 0)
(1.88707 -0.0313276 0)
(1.86691 -0.0357397 0)
(1.84666 -0.0387014 0)
(1.82683 -0.0405079 0)
(1.80781 -0.0414692 0)
(1.78989 -0.041847 0)
(1.7732 -0.0418339 0)
(1.75776 -0.0415697 0)
(1.74351 -0.0411555 0)
(1.73038 -0.0406614 0)
(1.71828 -0.0401333 0)
(1.70714 -0.0395992 0)
(1.69686 -0.0390764 0)
(1.68741 -0.0385777 0)
(1.67842 -0.0381347 0)
(1.99017 -0.0013247 0)
(1.98507 -0.00426499 0)
(1.97391 -0.00687119 0)
(1.95704 -0.0089465 0)
(1.93785 -0.0106094 0)
(1.91804 -0.0119349 0)
(1.89813 -0.0129663 0)
(1.8785 -0.0137671 0)
(1.85954 -0.0144016 0)
(1.84148 -0.0149181 0)
(1.82443 -0.0153516 0)
(1.80842 -0.0157283 0)
(1.79345 -0.0160674 0)
(1.77948 -0.0163826 0)
(1.76648 -0.0166832 0)
(1.7544 -0.016977 0)
(1.74317 -0.0172732 0)
(1.73266 -0.0175983 0)
(1.97278 0.00302835 0)
(1.96829 0.00864226 0)
(1.95748 0.0130665 0)
(1.94082 0.0162154 0)
(1.92176 0.0183034 0)
(1.90208 0.0195384 0)
(1.88235 0.0200969 0)
(1.86295 0.0201395 0)
(1.84425 0.0197995 0)
(1.82647 0.0191807 0)
(1.80972 0.018363 0)
(1.794 0.0174088 0)
(1.77932 0.0163658 0)
(1.76563 0.0152703 0)
(1.75289 0.0141488 0)
(1.74102 0.0130194 0)
(1.72997 0.0118916 0)
(1.71979 0.0107553 0)
(1.85389 0.00811094 0)
(1.84654 0.0230637 0)
(1.83218 0.0345172 0)
(1.8126 0.0423965 0)
(1.79189 0.0474426 0)
(1.77177 0.05028 0)
(1.75263 0.0514299 0)
(1.73469 0.0513715 0)
(1.71813 0.0504926 0)
(1.70296 0.0490753 0)
(1.6891 0.0473195 0)
(1.67646 0.0453678 0)
(1.66491 0.04332 0)
(1.65436 0.0412444 0)
(1.64468 0.0391869 0)
(1.6358 0.0371767 0)
(1.62761 0.0352293 0)
(1.62025 0.0333425 0)
(1.6912 0.0142669 0)
(1.68142 0.0384621 0)
(1.66393 0.0552052 0)
(1.64291 0.0655494 0)
(1.6229 0.0712281 0)
(1.60509 0.0735562 0)
(1.5894 0.073592 0)
(1.57568 0.0721691 0)
(1.56376 0.069875 0)
(1.5534 0.0671016 0)
(1.54434 0.0640997 0)
(1.53637 0.0610293 0)
(1.52933 0.0579898 0)
(1.52305 0.0550407 0)
(1.51742 0.0522151 0)
(1.51234 0.0495296 0)
(1.50772 0.0469883 0)
(1.50371 0.0445831 0)
(1.49891 0.0216343 0)
(1.48571 0.05454 0)
(1.46668 0.0741773 0)
(1.44776 0.0844127 0)
(1.43251 0.0885628 0)
(1.42087 0.0888105 0)
(1.41198 0.0867521 0)
(1.40519 0.0834866 0)
(1.40003 0.0796451 0)
(1.39608 0.0756007 0)
(1.39304 0.0715659 0)
(1.39066 0.0676581 0)
(1.38878 0.0639392 0)
(1.38728 0.0604373 0)
(1.38606 0.0571609 0)
(1.38506 0.054107 0)
(1.38419 0.0512657 0)
(1.38365 0.0486206 0)
(1.29314 0.0305215 0)
(1.27751 0.0697325 0)
(1.26111 0.0886746 0)
(1.24931 0.0960409 0)
(1.243 0.0970317 0)
(1.24061 0.0945753 0)
(1.24062 0.0904225 0)
(1.24211 0.085598 0)
(1.2445 0.0806417 0)
(1.24741 0.0758007 0)
(1.25055 0.0711995 0)
(1.25377 0.0668948 0)
(1.25696 0.0629026 0)
(1.26005 0.0592174 0)
(1.263 0.0558232 0)
(1.26579 0.0526995 0)
(1.2684 0.0498251 0)
(1.271 0.0471777 0)
(1.08551 0.0402399 0)
(1.07088 0.081125 0)
(1.06279 0.0956858 0)
(1.06268 0.0986488 0)
(1.06817 0.0962676 0)
(1.07642 0.0915398 0)
(1.08587 0.0859759 0)
(1.09568 0.0803464 0)
(1.10537 0.0749473 0)
(1.11467 0.0698991 0)
(1.12348 0.0652437 0)
(1.13172 0.0609811 0)
(1.13938 0.0570922 0)
(1.14648 0.0535491 0)
(1.15303 0.0503209 0)
(1.15907 0.0473764 0)
(1.16462 0.0446884 0)
(1.16986 0.0422326 0)
(0.884965 0.048921 0)
(0.876073 0.0857577 0)
(0.881777 0.0938224 0)
(0.896451 0.0925474 0)
(0.914419 0.0877464 0)
(0.933069 0.0817972 0)
(0.951305 0.0758022 0)
(0.968539 0.0701297 0)
(0.984567 0.0648979 0)
(0.999345 0.0601347 0)
(1.0129 0.0558256 0)
(1.0253 0.0519378 0)
(1.03663 0.0484323 0)
(1.04697 0.045269 0)
(1.05641 0.0424095 0)
(1.06504 0.0398179 0)
(1.07291 0.0374651 0)
(1.08022 0.0353296 0)
(0.69829 0.0538587 0)
(0.699769 0.0819386 0)
(0.723184 0.0837031 0)
(0.753172 0.0795879 0)
(0.782519 0.0737462 0)
(0.81024 0.0677705 0)
(0.835845 0.0621704 0)
(0.859168 0.0570587 0)
(0.880308 0.052453 0)
(0.899433 0.0483306 0)
(0.91672 0.0446497 0)
(0.932348 0.0413627 0)
(0.946486 0.0384235 0)
(0.959293 0.0357892 0)
(0.970911 0.0334213 0)
(0.981466 0.0312852 0)
(0.991058 0.0293533 0)
(0.999883 0.0276115 0)
(0.530078 0.0518699 0)
(0.545257 0.0697405 0)
(0.587346 0.0673361 0)
(0.630728 0.0621314 0)
(0.66947 0.056695 0)
(0.704356 0.0516065 0)
(0.735672 0.0469691 0)
(0.763647 0.0428131 0)
(0.788627 0.0391212 0)
(0.810959 0.0358539 0)
(0.83095 0.0329633 0)
(0.848877 0.0304017 0)
(0.864985 0.0281256 0)
(0.87949 0.0260964 0)
(0.892581 0.0242808 0)
(0.904421 0.0226486 0)
(0.915142 0.021175 0)
(0.924945 0.0198569 0)
(0.382207 0.0412401 0)
(0.41276 0.0512816 0)
(0.470189 0.0478092 0)
(0.523669 0.0431388 0)
(0.569234 0.0390629 0)
(0.60919 0.0353168 0)
(0.64449 0.0319015 0)
(0.675628 0.0288682 0)
(0.703133 0.0262003 0)
(0.727495 0.0238595 0)
(0.749131 0.0218047 0)
(0.768398 0.0199961 0)
(0.785603 0.0183983 0)
(0.80101 0.0169811 0)
(0.814844 0.0157185 0)
(0.827299 0.0145871 0)
(0.838528 0.0135642 0)
(0.848744 0.0126569 0)
(0.251784 0.0300845 0)
(0.298433 0.0322283 0)
(0.36212 0.0294612 0)
(0.420543 0.0261454 0)
(0.469749 0.0235633 0)
(0.512324 0.0211291 0)
(0.549535 0.0188575 0)
(0.582001 0.0168493 0)
(0.610371 0.0151024 0)
(0.635255 0.0135858 0)
(0.65716 0.0122677 0)
(0.676509 0.011118 0)
(0.693657 0.0101107 0)
(0.708902 0.00922356 0)
(0.722497 0.00843877 0)
(0.734656 0.00773935 0)
(0.745544 0.00710158 0)
(0.755383 0.00653619 0)
(0.103985 0.0790075 0)
(0.181198 0.0254198 0)
(0.234639 0.0163639 0)
(0.287403 0.0138688 0)
(0.333166 0.012437 0)
(0.372441 0.0110516 0)
(0.406236 0.00972288 0)
(0.435137 0.0085571 0)
(0.459857 0.00755894 0)
(0.481096 0.00670372 0)
(0.499418 0.00596874 0)
(0.515281 0.00533421 0)
(0.52906 0.00478317 0)
(0.541067 0.00430231 0)
(0.551559 0.00387891 0)
(0.560756 0.00350795 0)
(0.568805 0.00316582 0)
(0.575867 0.00286475 0)
(0.00137676 -0.00332855 -1.09106e-20)
(0.00589177 -0.00629941 1.2869e-20)
(0.0108219 -0.00660485 0)
(0.0147257 -0.00525277 0)
(0.0168687 -0.00321606 0)
(0.017151 -0.00115991 -9.99003e-21)
(0.0157673 0.00055114 0)
(0.0131362 0.00181864 0)
(0.00954901 0.00273542 0)
(0.00519902 0.0034589 0)
(0.000180666 0.00410514 1.09665e-20)
(-0.00550462 0.00473673 0)
(-0.0119072 0.00540667 0)
(-0.0190772 0.00614873 0)
(-0.02705 0.00696459 0)
(-0.0358447 0.00783381 6.94626e-21)
(-0.0454548 0.00872061 0)
(-0.0558498 0.00958843 0)
(-0.0669738 0.0104046 0)
(-0.0787508 0.0111425 0)
(-0.0910905 0.0117831 0)
(-0.103893 0.0123129 0)
(-0.117052 0.0127222 0)
(-0.130459 0.0130074 3.67808e-21)
(-0.14401 0.0131694 -3.47635e-21)
(-0.157604 0.0132133 3.30123e-21)
(-0.171148 0.0131479 3.14847e-21)
(-0.184558 0.0129843 0)
(-0.197759 0.0127344 0)
(-0.210686 0.0124106 -2.79034e-21)
(-0.223283 0.0120249 -2.69538e-21)
(-0.235505 0.0115884 0)
(-0.247311 0.0111114 0)
(-0.258671 0.0106029 -2.45635e-21)
(-0.26956 0.0100708 0)
(-0.279958 0.00952163 0)
(-0.289849 0.00896098 2.25885e-21)
(-0.299223 0.00839333 0)
(-0.30807 0.00782233 2.13819e-21)
(-0.316384 0.00725081 4.15857e-21)
(-0.324161 0.00668097 0)
(-0.331399 0.00611441 0)
(-0.338096 0.00555222 0)
(-0.344251 0.00499501 0)
(-0.349864 0.00444292 0)
(-0.354934 0.00389558 3.44064e-21)
(-0.359462 0.00335208 3.31384e-21)
(-0.363447 0.00281099 3.18389e-21)
(-0.366887 0.0022703 0)
(-0.369781 0.00172777 -2.91338e-21)
(-0.372125 0.00118146 0)
(-0.373915 0.000631506 2.6272e-21)
(-0.375151 8.45932e-05 2.47783e-21)
(-0.375825 -0.000438861 0)
(-0.375915 -0.000909279 0)
(-0.37551 -0.00132321 0)
(-0.374639 -0.00170091 1.82623e-21)
(-0.373321 -0.00205543 0)
(-0.371572 -0.00239292 0)
(-0.369404 -0.00271589 0)
(-0.366829 -0.00302565 0)
(-0.363858 -0.0033226 0)
(-0.3605 -0.00360708 0)
(-0.356768 -0.00387902 0)
(-0.352672 -0.0041386 0)
(-0.348225 -0.00438569 -2.13691e-23)
(-0.343438 -0.00462048 0)
(-0.338323 -0.00484289 0)
(-0.332892 -0.00505316 -6.93651e-22)
(-0.327159 -0.00525126 -9.45604e-22)
(-0.321137 -0.0054375 0)
(-0.314837 -0.0056119 1.47077e-21)
(-0.308274 -0.00577481 -1.74432e-21)
(-0.301461 -0.00592631 0)
(-0.29441 -0.00606683 2.31426e-21)
(-0.287134 -0.0061965 0)
(-0.279647 -0.00631576 0)
(-0.271962 -0.00642479 -3.22961e-21)
(-0.264091 -0.00652401 0)
(-0.256047 -0.0066135 3.88318e-21)
(-0.247842 -0.00669362 0)
(-0.239488 -0.00676608 -4.57457e-21)
(-0.230997 -0.00683037 -4.93552e-21)
(-0.222381 -0.00688555 -5.30689e-21)
(-0.213653 -0.00693279 -1.13788e-20)
(-0.204823 -0.00697279 1.21672e-20)
(-0.195901 -0.00700582 0)
(-0.186899 -0.00703221 0)
(-0.177826 -0.00705222 0)
(-0.168693 -0.00706628 1.55794e-20)
(-0.15951 -0.00707474 1.65042e-20)
(-0.150286 -0.00707802 -1.74611e-20)
(-0.141031 -0.00707647 0)
(-0.131752 -0.0070704 1.94791e-20)
(-0.122459 -0.00706015 2.05446e-20)
(-0.113159 -0.00704603 2.1651e-20)
(-0.103861 -0.0070284 0)
(-0.0945717 -0.00700759 0)
(-0.0852984 -0.00698394 0)
(-0.0760479 -0.00695772 2.6546e-20)
(-0.0668268 -0.00692923 0)
(-0.0576415 -0.0068988 0)
(-0.0484981 -0.00686664 -3.08126e-20)
(-0.0394021 -0.00683311 0)
(-0.0303587 -0.00679828 0)
(-0.021373 -0.00676318 -3.57338e-20)
(-0.0124518 -0.00672703 0)
(-0.00360609 -0.00668032 0)
(0.00515768 -0.00659004 4.03223e-20)
(0.0138489 -0.00645467 4.00889e-20)
(0.0224646 -0.00630616 0)
(0.0309931 -0.00615655 -3.96328e-20)
(0.0394303 -0.00600851 0)
(0.0477729 -0.00586257 3.91906e-20)
(0.0560181 -0.00571841 0)
(0.0641631 -0.00557626 3.87615e-20)
(0.0722055 -0.00543583 3.85518e-20)
(0.0801428 -0.00529729 0)
(0.0879726 -0.00516034 0)
(0.0956923 -0.0050251 0)
(0.103299 -0.00489143 0)
(0.110789 -0.00475953 0)
(0.118161 -0.00462926 0)
(0.125414 -0.0045008 0)
(0.132545 -0.00437386 3.69927e-20)
(0.139553 -0.00424862 -3.68132e-20)
(0.146437 -0.00412489 0)
(0.153193 -0.00400289 0)
(0.159822 -0.00388243 0)
(0.16632 -0.00376375 0)
(0.172686 -0.00364661 -7.19384e-20)
(0.17892 -0.00353117 0)
(0.185019 -0.00341739 7.13147e-20)
(0.190983 -0.00330543 -7.10141e-20)
(0.19681 -0.00319518 0)
(0.2025 -0.00308672 0)
(0.208052 -0.00298 0)
(0.213464 -0.00287509 6.98898e-20)
(0.218738 -0.00277191 6.96282e-20)
(0.223871 -0.00267052 0)
(0.228864 -0.00257094 6.91284e-20)
(0.233717 -0.0024732 6.88903e-20)
(0.238428 -0.00237733 -6.86601e-20)
(0.242999 -0.00228335 0)
(0.247429 -0.00219125 0)
(0.251719 -0.00210105 -6.80167e-20)
(0.255868 -0.00201274 0)
(0.259879 -0.00192633 0)
(0.26375 -0.00184179 0)
(0.267483 -0.00175913 0)
(0.271079 -0.00167839 6.70987e-20)
(0.274538 -0.00159954 6.69379e-20)
(0.277862 -0.0015226 0)
(0.281051 -0.00144754 6.66388e-20)
(0.284107 -0.00137435 0)
(0.28703 -0.00130302 0)
(0.289823 -0.00123346 6.62444e-20)
(0.292485 -0.00116555 0)
(0.295019 -0.00109935 6.60175e-20)
(0.297424 -0.00103481 0)
(0.299701 -0.000971829 0)
(0.301852 -0.000910227 6.57326e-20)
(0.303876 -0.000849797 0)
(0.305772 -0.00079027 6.55813e-20)
(0.30754 -0.000731314 0)
(0.309175 -0.000672449 0)
(0.310675 -0.00061302 0)
(0.312031 -0.000552114 -6.53952e-20)
(0.313235 -0.000488243 0)
(0.314267 -0.000419372 6.53893e-20)
(0.315111 -0.000337954 0)
(0.315693 -0.000234175 0)
(0.315941 -0.000106851 0)
(0.31578 4.92419e-05 0)
(0.315104 0.000249132 0)
(0.313646 0.000535071 0)
(0.311257 0.000967023 0)
(0.306357 0.00171228 -1.3548e-19)
(0.30098 0.00303139 0)
(0.279482 0.00551305 0)
(0.0015011 -0.0113505 3.09079e-20)
(0.00490305 -0.0162701 -2.67622e-20)
(0.00600873 -0.0125386 0)
(0.00513015 -0.00678876 9.70441e-21)
(0.00267871 -0.000934296 0)
(-0.00113928 0.00434403 4.01989e-21)
(-0.00617246 0.00876345 -7.45934e-21)
(-0.0123735 0.0123141 -7.03386e-21)
(-0.019665 0.0151722 0)
(-0.0279716 0.0175796 -6.29688e-21)
(-0.0372072 0.0197491 -3.01829e-21)
(-0.0472663 0.0218229 0)
(-0.0580479 0.0238708 0)
(-0.0694723 0.0258998 0)
(-0.0814609 0.0278762 0)
(-0.0939227 0.0297515 -2.28445e-21)
(-0.106763 0.0314741 0)
(-0.119885 0.0329938 4.04628e-21)
(-0.133193 0.0342704 0)
(-0.146592 0.035274 0)
(-0.15999 0.035987 -3.5281e-21)
(-0.173301 0.0364056 0)
(-0.186443 0.0365394 3.26797e-21)
(-0.199349 0.0364061 -1.59893e-21)
(-0.211959 0.0360288 1.5484e-21)
(-0.224225 0.0354344 -1.50312e-21)
(-0.236107 0.0346516 -1.46235e-21)
(-0.247574 0.0337094 0)
(-0.258602 0.0326355 0)
(-0.269174 0.0314561 1.36022e-21)
(-0.279277 0.0301944 -1.3071e-21)
(-0.288903 0.0288711 0)
(-0.298047 0.0275039 0)
(-0.306707 0.0261079 1.25054e-21)
(-0.314881 0.0246952 0)
(-0.32257 0.023276 0)
(-0.329776 0.0218582 -1.17426e-21)
(-0.336501 0.0204479 0)
(-0.342747 0.0190498 1.11024e-21)
(-0.348516 0.0176674 -2.19116e-21)
(-0.353811 0.0163034 0)
(-0.358635 0.0149596 0)
(-0.362989 0.013637 -4.03225e-21)
(-0.366877 0.0123364 -3.91517e-21)
(-0.370302 0.0110582 -3.79395e-21)
(-0.373265 0.00980243 1.83589e-21)
(-0.375771 0.00856875 -1.76516e-21)
(-0.377823 0.00735679 -5.09887e-21)
(-0.379428 0.00616597 3.2638e-21)
(-0.380591 0.00499584 1.54865e-21)
(-0.381323 0.00384612 0)
(-0.381637 0.0027174 -1.39197e-21)
(-0.381548 0.0016132 1.34571e-21)
(-0.381077 0.000544957 0)
(-0.380257 -0.000467656 0)
(-0.37905 -0.00141863 0)
(-0.377439 -0.00231887 -9.5294e-22)
(-0.375422 -0.0031772 0)
(-0.373005 -0.00399875 1.57912e-21)
(-0.370192 -0.004786 0)
(-0.366993 -0.00554025 1.18031e-21)
(-0.363414 -0.00626192 0)
(-0.359467 -0.00695128 -7.6206e-22)
(-0.35516 -0.00760825 0)
(-0.350505 -0.00823294 3.24911e-22)
(-0.345511 -0.00882523 -9.53576e-23)
(-0.34019 -0.00938534 0)
(-0.334553 -0.00991328 3.64885e-22)
(-0.328612 -0.0104094 3.52979e-22)
(-0.322378 -0.0108739 4.76169e-22)
(-0.315864 -0.0113073 0)
(-0.309082 -0.01171 6.16268e-22)
(-0.302043 -0.0120824 8.57655e-22)
(-0.29476 -0.0124252 0)
(-0.287246 -0.0127391 -1.12154e-21)
(-0.279512 -0.0130248 2.38901e-21)
(-0.271571 -0.013283 0)
(-0.263436 -0.0135146 1.53104e-21)
(-0.255117 -0.0137207 0)
(-0.246627 -0.0139021 -5.30606e-21)
(-0.237978 -0.01406 0)
(-0.229181 -0.0141948 6.16845e-21)
(-0.220247 -0.014306 2.24856e-21)
(-0.211187 -0.0143956 -2.25808e-21)
(-0.202013 -0.0144654 -4.81408e-21)
(-0.192734 -0.0145159 5.11571e-21)
(-0.183362 -0.0145479 0)
(-0.173905 -0.0145621 0)
(-0.164375 -0.0145595 0)
(-0.154779 -0.0145409 -1.96602e-20)
(-0.145128 -0.0145074 -6.97209e-21)
(-0.13543 -0.0144599 7.29764e-21)
(-0.125695 -0.0143991 0)
(-0.115929 -0.0143261 7.66599e-21)
(-0.106142 -0.0142415 -8.29765e-21)
(-0.0963401 -0.0141461 -8.63916e-21)
(-0.0865316 -0.0140408 0)
(-0.0767232 -0.0139263 0)
(-0.0669217 -0.0138034 0)
(-0.0571335 -0.0136726 -1.00498e-20)
(-0.0473648 -0.0135348 0)
(-0.0376217 -0.0133905 2.12754e-20)
(-0.0279099 -0.0132403 3.3186e-20)
(-0.0182348 -0.0130845 -2.27891e-20)
(-0.00860152 -0.0129234 0)
(0.000984298 -0.0127567 -1.19696e-20)
(0.0105188 -0.0125835 0)
(0.0200045 -0.0124005 -2.49624e-20)
(0.0294369 -0.0121996 1.24946e-20)
(0.0388003 -0.0119821 1.26404e-20)
(0.0480895 -0.0117577 0)
(0.0573053 -0.0115307 3.92579e-20)
(0.0664447 -0.0113028 -2.63464e-20)
(0.0755045 -0.0110748 -1.34176e-20)
(0.0844817 -0.0108468 0)
(0.0933736 -0.0106191 -1.36488e-20)
(0.102177 -0.0103915 -4.10536e-20)
(0.110891 -0.0101644 0)
(0.119511 -0.00993771 -2.77233e-20)
(0.128035 -0.00971156 -2.79269e-20)
(0.136462 -0.009486 -2.81239e-20)
(0.144787 -0.00926134 0)
(0.153009 -0.00903761 0)
(0.161126 -0.00881506 0)
(0.169137 -0.00859359 1.43364e-20)
(0.17704 -0.00837345 1.45964e-20)
(0.184833 -0.00815459 0)
(0.192514 -0.00793729 2.93401e-20)
(0.200082 -0.00772151 2.94935e-20)
(0.207534 -0.00750754 0)
(0.214871 -0.00729534 2.9937e-20)
(0.222089 -0.00708516 5.98562e-20)
(0.229188 -0.00687695 -3.02062e-20)
(0.236166 -0.00667094 -3.00622e-20)
(0.243023 -0.00646715 0)
(0.249757 -0.00626578 0)
(0.256368 -0.00606684 0)
(0.262854 -0.00587048 -3.08211e-20)
(0.269216 -0.00567672 3.07025e-20)
(0.275452 -0.00548568 6.1869e-20)
(0.281562 -0.00529746 -3.11565e-20)
(0.287545 -0.00511214 3.10528e-20)
(0.2934 -0.00492983 3.13686e-20)
(0.299129 -0.00475058 0)
(0.30473 -0.00457447 0)
(0.310204 -0.00440153 -3.14881e-20)
(0.31555 -0.00423183 0)
(0.32077 -0.00406538 0)
(0.325862 -0.00390225 6.37542e-20)
(0.330828 -0.00374245 0)
(0.335669 -0.00358602 3.19908e-20)
(0.340383 -0.00343294 -3.22351e-20)
(0.344973 -0.00328327 0)
(0.349438 -0.003137 3.22757e-20)
(0.35378 -0.00299414 0)
(0.357999 -0.00285463 0)
(0.362096 -0.00271839 -3.26728e-20)
(0.366072 -0.00258531 6.53975e-20)
(0.369926 -0.00245527 -3.28422e-20)
(0.37366 -0.00232803 0)
(0.377273 -0.00220336 0)
(0.380766 -0.00208091 3.29935e-20)
(0.384138 -0.00196028 0)
(0.387389 -0.00184087 3.31692e-20)
(0.390515 -0.00172188 0)
(0.393514 -0.00160212 0)
(0.396382 -0.00148005 0)
(0.39911 -0.00135352 3.36116e-20)
(0.40169 -0.00121939 0)
(0.404107 -0.00107299 -3.38078e-20)
(0.406337 -0.000904052 0)
(0.408376 -0.000698962 0)
(0.41019 -0.000446942 6.82818e-20)
(0.411704 -0.000131651 -6.85695e-20)
(0.412828 0.000285565 0)
(0.413393 0.00086938 0)
(0.413307 0.00177163 0)
(0.411763 0.00320333 2.11513e-19)
(0.409987 0.00589358 0)
(0.401201 0.0108027 -1.46862e-19)
(0.000629215 -0.0153827 -3.19591e-22)
(-0.000535877 -0.0151908 2.72378e-20)
(-0.00392691 -0.00692182 0)
(-0.00859799 0.00166502 -1.17818e-20)
(-0.0142725 0.00955824 0)
(-0.0207636 0.0165694 0)
(-0.0280161 0.0226757 3.5694e-23)
(-0.036042 0.0279267 3.70768e-21)
(-0.044847 0.0324393 3.48254e-21)
(-0.0544036 0.0363721 3.35822e-21)
(-0.0646454 0.0398802 0)
(-0.0754759 0.0430784 0)
(-0.0867823 0.0460256 -2.91518e-21)
(-0.0984478 0.04873 -5.59377e-21)
(-0.110359 0.0511661 5.37269e-21)
(-0.122413 0.0532932 0)
(-0.134513 0.0550714 4.97752e-21)
(-0.146576 0.0564684 -2.42003e-21)
(-0.158527 0.0574633 0)
(-0.170306 0.0580485 4.49202e-21)
(-0.181862 0.0582293 2.18826e-21)
(-0.193159 0.0580229 -4.23209e-21)
(-0.204168 0.0574566 -2.06656e-21)
(-0.214869 0.0565651 0)
(-0.225244 0.055387 3.92522e-21)
(-0.235284 0.0539625 3.84035e-21)
(-0.24498 0.0523312 0)
(-0.254325 0.050531 3.68963e-21)
(-0.263316 0.0485966 0)
(-0.271947 0.0465592 3.55714e-21)
(-0.280216 0.0444461 1.75217e-21)
(-0.288118 0.0422807 0)
(-0.295651 0.0400826 0)
(-0.302811 0.0378679 0)
(-0.309594 0.0356497 0)
(-0.315996 0.0334382 0)
(-0.322014 0.0312415 0)
(-0.327644 0.0290658 3.07907e-21)
(-0.332883 0.0269157 -4.52732e-21)
(-0.337726 0.0247946 0)
(-0.342171 0.0227051 0)
(-0.346216 0.0206488 0)
(-0.349856 0.0186271 2.36224e-24)
(-0.353092 0.016641 2.66184e-21)
(-0.35592 0.0146913 5.16192e-21)
(-0.358341 0.0127785 -4.99411e-21)
(-0.360354 0.0109036 -2.41261e-21)
(-0.361961 0.00906744 2.31506e-21)
(-0.363163 0.0072714 1.033e-23)
(-0.363965 0.00551751 2.13354e-21)
(-0.36437 0.00380868 0)
(-0.364384 0.00214898 1.93012e-21)
(-0.364012 0.00054366 2.03368e-23)
(-0.363256 -0.00100291 0)
(-0.362116 -0.00249329 0)
(-0.360586 -0.00393191 -1.47536e-21)
(-0.358668 -0.00531941 0)
(-0.356363 -0.00665568 0)
(-0.353678 -0.00794078 1.1362e-21)
(-0.350617 -0.00917466 1.93641e-21)
(-0.347187 -0.0103572 -7.92046e-22)
(-0.343396 -0.0114882 0)
(-0.339253 -0.0125675 5.0961e-22)
(-0.334767 -0.0135947 0)
(-0.329947 -0.0145699 3.19814e-22)
(-0.324804 -0.015493 6.61206e-23)
(-0.319346 -0.0163641 6.06101e-23)
(-0.313586 -0.0171835 1.24575e-22)
(-0.307533 -0.0179515 0)
(-0.301199 -0.0186686 -9.90648e-22)
(-0.294595 -0.0193355 0)
(-0.287733 -0.019953 -2.51396e-21)
(-0.280624 -0.0205219 -1.9576e-21)
(-0.273279 -0.0210432 -2.28722e-21)
(-0.265711 -0.0215179 2.62017e-21)
(-0.257931 -0.0219473 -4.50806e-21)
(-0.24995 -0.0223325 0)
(-0.24178 -0.022675 0)
(-0.233433 -0.0229763 3.98176e-21)
(-0.224919 -0.0232378 6.57242e-21)
(-0.21625 -0.0234613 0)
(-0.207438 -0.0236479 -2.59635e-21)
(-0.198491 -0.023798 0)
(-0.189421 -0.0239132 8.69241e-21)
(-0.180238 -0.0239962 1.68985e-22)
(-0.170953 -0.0240482 -1.70585e-22)
(-0.161575 -0.0240704 -6.81675e-21)
(-0.152114 -0.0240643 0)
(-0.142578 -0.0240314 7.54323e-21)
(-0.132978 -0.0239729 1.75491e-22)
(-0.123321 -0.0238905 0)
(-0.113616 -0.0237854 0)
(-0.103872 -0.0236592 0)
(-0.0940961 -0.0235132 -9.56246e-21)
(-0.0842962 -0.0233486 0)
(-0.0744795 -0.0231667 0)
(-0.064653 -0.0229686 0)
(-0.0548235 -0.0227557 0)
(-0.0449976 -0.022529 0)
(-0.0351813 -0.0222895 -1.16374e-20)
(-0.0253809 -0.0220382 0)
(-0.015602 -0.0217759 -1.25774e-20)
(-0.00585004 -0.0215037 -1.29603e-20)
(0.00386932 -0.0212224 1.32836e-20)
(0.0135512 -0.0209327 0)
(0.0231917 -0.0206349 1.37568e-20)
(0.0327871 -0.0203297 0)
(0.0423345 -0.0200171 1.41948e-20)
(0.0518297 -0.0196989 -1.44055e-20)
(0.0612659 -0.0193753 -4.35127e-20)
(0.0706383 -0.0190459 0)
(0.0799449 -0.0187129 -4.47131e-20)
(0.0891825 -0.0183775 -1.48975e-20)
(0.0983477 -0.0180403 0)
(0.107437 -0.0177017 -3.08423e-20)
(0.116448 -0.0173621 -3.12029e-20)
(0.125377 -0.0170217 4.74692e-20)
(0.134221 -0.0166807 0)
(0.142979 -0.0163393 1.62478e-20)
(0.151648 -0.0159979 1.64088e-20)
(0.160224 -0.0156566 4.94501e-20)
(0.168706 -0.0153159 0)
(0.177091 -0.0149758 0)
(0.185378 -0.0146366 0)
(0.193565 -0.0142985 1.6937e-20)
(0.201649 -0.0139616 0)
(0.20963 -0.0136262 0)
(0.217505 -0.0132925 -1.75762e-20)
(0.225274 -0.0129607 -1.77088e-20)
(0.232933 -0.0126309 0)
(0.240482 -0.0123034 0)
(0.247919 -0.0119784 -3.61838e-20)
(0.255243 -0.011656 0)
(0.262453 -0.0113365 3.66722e-20)
(0.269548 -0.0110199 3.67389e-20)
(0.276527 -0.0107066 0)
(0.283388 -0.0103966 0)
(0.290131 -0.0100901 -3.74443e-20)
(0.296755 -0.00978718 -1.52444e-22)
(0.30326 -0.00948807 -1.47943e-22)
(0.309645 -0.00919292 0)
(0.315909 -0.00890187 -7.68121e-20)
(0.322052 -0.0086151 0)
(0.328074 -0.00833269 0)
(0.333974 -0.00805478 0)
(0.339754 -0.00778145 3.93043e-20)
(0.345412 -0.00751281 0)
(0.350949 -0.0072489 -7.91775e-20)
(0.356365 -0.0069898 -3.99004e-20)
(0.361661 -0.00673559 0)
(0.366837 -0.00648635 -4.02875e-20)
(0.371893 -0.00624208 0)
(0.376831 -0.00600285 0)
(0.38165 -0.00576864 -1.22377e-19)
(0.386351 -0.00553947 8.19e-20)
(0.390936 -0.00531525 0)
(0.395404 -0.00509585 8.26471e-20)
(0.399756 -0.00488113 -4.15904e-20)
(0.403994 -0.00467093 0)
(0.408117 -0.00446494 0)
(0.412125 -0.00426276 0)
(0.416019 -0.00406387 -1.26789e-19)
(0.419799 -0.00386758 0)
(0.423463 -0.00367296 -4.26682e-20)
(0.427009 -0.00347874 0)
(0.430435 -0.00328316 0)
(0.433737 -0.00308381 0)
(0.436908 -0.00287741 0)
(0.439939 -0.00265929 0)
(0.442818 -0.00242249 0)
(0.445527 -0.00215693 -8.78912e-20)
(0.448046 -0.00184836 0)
(0.450347 -0.00147637 -4.44716e-20)
(0.452382 -0.00101099 1.34124e-19)
(0.454081 -0.000401314 0)
(0.455317 0.000436988 0)
(0.45602 0.00167982 -9.12047e-20)
(0.455718 0.00358704 -9.22126e-20)
(0.455255 0.00686341 9.31211e-20)
(0.451358 0.0125554 9.57418e-20)
(-0.000911092 -0.0124502 -5.23365e-20)
(-0.00597235 -0.0056422 -3.25931e-20)
(-0.0122109 0.00530796 -1.20633e-20)
(-0.0191859 0.0153354 -4.2253e-21)
(-0.0268033 0.0243478 0)
(-0.0348438 0.0324137 6.17668e-21)
(-0.0432777 0.0395871 -2.81153e-21)
(-0.0521378 0.0459206 0)
(-0.0614423 0.0514868 -2.52714e-21)
(-0.0711766 0.0563766 0)
(-0.0812922 0.0606799 4.60088e-21)
(-0.0917146 0.0644675 0)
(-0.102354 0.0677803 2.1289e-21)
(-0.113116 0.0706317 4.09781e-21)
(-0.123912 0.0730178 -3.94927e-21)
(-0.134664 0.0749266 0)
(-0.145307 0.0763471 -3.68502e-21)
(-0.155788 0.0772752 0)
(-0.166067 0.0777172 0)