/*--------------------------------*- C++ -*----------------------------------*\
  =========                 |
  \\      /  F ield         | OpenFOAM: The Open Source CFD Toolbox
   \\    /   O peration     | Website:  https://openfoam.org
    \\  /    A nd           | Version:  10
     \\/     M anipulation  |
\*---------------------------------------------------------------------------*/
FoamFile
{
    format      ascii;
    class       volScalarField;
    location    "0.2";
    object      p;
}
// * * * * * * * * * * * * * * * * * * * * * * * * * * * * * * * * * * * * * //

dimensions      [0 2 -2 0 0 0 0];

internalField   nonuniform List<scalar> 
100
(
1.24792
1.29571
1.33538
1.36395
1.37894
1.36395
1.42705
1.48059
1.51981
1.54063
1.49982
1.58498
1.65931
1.71511
1.7452
1.65931
1.77693
1.88364
1.96648
2.01221
1.84596
2.01221
2.17131
2.30105
2.3753
2.0613
2.30105
2.54827
2.76552
2.89729
2.30105
2.65024
3.04988
3.44496
3.71034
2.54827
3.04988
3.71034
4.49945
5.14532
2.76552
3.44496
4.49945
6.1839
8.29657
2.89729
3.71034
5.14532
8.29657
18.5517
2.89729
3.71034
5.14532
8.29657
18.5517
2.76552
3.44496
4.49945
6.1839
8.29657
2.54827
3.04988
3.71034
4.49945
5.14532
2.30105
2.65024
3.04988
3.44496
3.71034
2.0613
2.30105
2.54827
2.76552
2.89729
1.84596
2.01221
2.17131
2.30105
2.3753
1.65931
1.77693
1.88364
1.96648
2.01221
1.49982
1.58498
1.65931
1.71511
1.7452
1.36395
1.42705
1.48059
1.51981
1.54063
1.24792
1.29571
1.33538
1.36395
1.37894
)
;

boundaryField
{
    movingWall
    {
        type            zeroGradient;
    }
    fixedWalls
    {
        type            zeroGradient;
    }
    frontAndBack
    {
        type            empty;
    }
    procBoundary1to0
    {
        type            processor;
        value           nonuniform List<scalar> 
20
(
1.19502
1.29571
1.41046
1.54063
1.68652
1.84596
2.01221
2.17131
2.30105
2.3753
2.3753
2.30105
2.17131
2.01221
1.84596
1.68652
1.54063
1.41046
1.29571
1.19502
)
;
    }
    procBoundary1to2
    {
        type            processor;
        value           nonuniform List<scalar> 
20
(
1.37894
1.54063
1.7452
2.01221
2.3753
2.89729
3.71034
5.14532
8.29657
18.5517
18.5517
8.29657
5.14532
3.71034
2.89729
2.3753
2.01221
1.7452
1.54063
1.37894
)
;
    }
}


// ************************************************************************* //
