/*--------------------------------*- C++ -*----------------------------------*\
  =========                 |
  \\      /  F ield         | OpenFOAM: The Open Source CFD Toolbox
   \\    /   O peration     | Website:  https://openfoam.org
    \\  /    A nd           | Version:  10
     \\/     M anipulation  |
\*---------------------------------------------------------------------------*/
FoamFile
{
    format      ascii;
    class       volScalarField;
    location    "0.5";
    object      p;
}
// * * * * * * * * * * * * * * * * * * * * * * * * * * * * * * * * * * * * * //

dimensions      [0 2 -2 0 0 0 0];

internalField   nonuniform List<scalar> 
100
(
-2.75285e-15
-2.85826e-15
-2.94578e-15
-3.0088e-15
-3.04186e-15
-3.0088e-15
-3.14801e-15
-3.2661e-15
-3.35263e-15
-3.39856e-15
-3.30852e-15
-3.49638e-15
-3.66036e-15
-3.78343e-15
-3.84981e-15
-3.66036e-15
-3.91982e-15
-4.15521e-15
-4.33794e-15
-4.43884e-15
-4.0721e-15
-4.43884e-15
-4.7898e-15
-5.07601e-15
-5.23979e-15
-4.54712e-15
-5.07601e-15
-5.62136e-15
-6.1006e-15
-6.39127e-15
-5.07601e-15
-5.8463e-15
-6.72788e-15
-7.59941e-15
-8.18482e-15
-5.62136e-15
-6.72788e-15
-8.18482e-15
-9.92555e-15
-1.13503e-14
-6.1006e-15
-7.59941e-15
-9.92555e-15
-1.36414e-14
-1.83018e-14
-6.39127e-15
-8.18482e-15
-1.13503e-14
-1.83018e-14
-4.09241e-14
-6.39127e-15
-8.18482e-15
-1.13503e-14
-1.83018e-14
-4.09241e-14
-6.1006e-15
-7.59941e-15
-9.92555e-15
-1.36414e-14
-1.83018e-14
-5.62136e-15
-6.72788e-15
-8.18482e-15
-9.92555e-15
-1.13503e-14
-5.07601e-15
-5.8463e-15
-6.72788e-15
-7.59941e-15
-8.18482e-15
-4.54712e-15
-5.07601e-15
-5.62136e-15
-6.1006e-15
-6.39127e-15
-4.0721e-15
-4.43884e-15
-4.7898e-15
-5.07601e-15
-5.23979e-15
-3.66036e-15
-3.91982e-15
-4.15521e-15
-4.33794e-15
-4.43884e-15
-3.30852e-15
-3.49638e-15
-3.66036e-15
-3.78343e-15
-3.84981e-15
-3.0088e-15
-3.14801e-15
-3.2661e-15
-3.35263e-15
-3.39856e-15
-2.75285e-15
-2.85826e-15
-2.94578e-15
-3.0088e-15
-3.04186e-15
)
;

boundaryField
{
    movingWall
    {
        type            zeroGradient;
    }
    fixedWalls
    {
        type            zeroGradient;
    }
    frontAndBack
    {
        type            empty;
    }
    procBoundary1to0
    {
        type            processor;
        value           nonuniform List<scalar> 
20
(
-2.63615e-15
-2.85826e-15
-3.1114e-15
-3.39856e-15
-3.72037e-15
-4.0721e-15
-4.43884e-15
-4.7898e-15
-5.07601e-15
-5.23979e-15
-5.23979e-15
-5.07601e-15
-4.7898e-15
-4.43884e-15
-4.0721e-15
-3.72037e-15
-3.39856e-15
-3.1114e-15
-2.85826e-15
-2.63615e-15
)
;
    }
    procBoundary1to2
    {
        type            processor;
        value           nonuniform List<scalar> 
20
(
-3.04186e-15
-3.39856e-15
-3.84981e-15
-4.43884e-15
-5.23979e-15
-6.39127e-15
-8.18482e-15
-1.13503e-14
-1.83018e-14
-4.09241e-14
-4.09241e-14
-1.83018e-14
-1.13503e-14
-8.18482e-15
-6.39127e-15
-5.23979e-15
-4.43884e-15
-3.84981e-15
-3.39856e-15
-3.04186e-15
)
;
    }
}


// ************************************************************************* //
