/*--------------------------------*- C++ -*----------------------------------*\
  =========                 |
  \\      /  F ield         | OpenFOAM: The Open Source CFD Toolbox
   \\    /   O peration     | Website:  https://openfoam.org
    \\  /    A nd           | Version:  10
     \\/     M anipulation  |
\*---------------------------------------------------------------------------*/
FoamFile
{
    format      ascii;
    class       volScalarField;
    location    "0.4";
    object      p;
}
// * * * * * * * * * * * * * * * * * * * * * * * * * * * * * * * * * * * * * //

dimensions      [0 2 -2 0 0 0 0];

internalField   nonuniform List<scalar> 
100
(
0.85223
0.842966
0.82531
0.800791
0.771258
0.952165
0.939297
0.915053
0.881968
0.842966
1.07859
1.05999
1.02551
0.979571
0.926937
1.24362
1.21535
1.16415
1.0982
1.02551
1.46802
1.42213
1.34194
1.24362
1.14087
1.79062
1.70919
1.57492
1.42213
1.27395
2.29312
2.1291
1.88493
1.63794
1.42213
3.17998
2.78081
2.29312
1.88493
1.57492
5.12756
3.82186
2.78081
2.1291
1.70919
11.4656
5.12756
3.17998
2.29312
1.79062
11.4656
5.12756
3.17998
2.29312
1.79062
5.12756
3.82186
2.78081
2.1291
1.70919
3.17998
2.78081
2.29312
1.88493
1.57492
2.29312
2.1291
1.88493
1.63794
1.42213
1.79062
1.70919
1.57492
1.42213
1.27395
1.46802
1.42213
1.34194
1.24362
1.14087
1.24362
1.21535
1.16415
1.0982
1.02551
1.07859
1.05999
1.02551
0.979571
0.926937
0.952165
0.939297
0.915053
0.881968
0.842966
0.85223
0.842966
0.82531
0.800791
0.771258
)
;

boundaryField
{
    movingWall
    {
        type            zeroGradient;
    }
    fixedWalls
    {
        type            zeroGradient;
    }
    frontAndBack
    {
        type            empty;
    }
    procBoundary2to1
    {
        type            processor;
        value           nonuniform List<scalar> 
20
(
0.85223
0.952165
1.07859
1.24362
1.46802
1.79062
2.29312
3.17998
5.12756
11.4656
11.4656
5.12756
3.17998
2.29312
1.79062
1.46802
1.24362
1.07859
0.952165
0.85223
)
;
    }
    procBoundary2to3
    {
        type            processor;
        value           nonuniform List<scalar> 
20
(
0.738563
0.800791
0.871712
0.952165
1.04233
1.14087
1.24362
1.34194
1.42213
1.46802
1.46802
1.42213
1.34194
1.24362
1.14087
1.04233
0.952165
0.871712
0.800791
0.738563
)
;
    }
}


// ************************************************************************* //
