/*--------------------------------*- C++ -*----------------------------------*\
  =========                 |
  \\      /  F ield         | OpenFOAM: The Open Source CFD Toolbox
   \\    /   O peration     | Website:  https://openfoam.org
    \\  /    A nd           | Version:  10
     \\/     M anipulation  |
\*---------------------------------------------------------------------------*/
FoamFile
{
    format      ascii;
    class       volVectorField;
    location    "0.4";
    object      U;
}
// * * * * * * * * * * * * * * * * * * * * * * * * * * * * * * * * * * * * * //

dimensions      [0 1 -1 0 0 0 0];

internalField   nonuniform List<vector> 
100
(
(-0.926364 9.99347 0)
(-2.69193 9.63307 0)
(-4.21754 8.97424 0)
(-5.40521 8.11768 0)
(-6.22279 7.17078 0)
(-1.28677 22.6361 0)
(-3.71117 21.7027 0)
(-5.73292 20.0202 0)
(-7.20867 17.878 0)
(-8.11768 15.5679 0)
(-1.85978 29.1452 0)
(-5.30784 27.6052 0)
(-8.04226 24.91 0)
(-9.85754 21.6236 0)
(-10.7859 18.2546 0)
(-2.82677 38.9426 0)
(-7.94635 36.2137 0)
(-11.7146 31.6432 0)
(-13.8641 26.4046 0)
(-14.6039 21.3931 0)
(-4.58869 54.7006 0)
(-12.6072 49.3839 0)
(-17.8513 41.0765 0)
(-20.1077 32.3927 0)
(-20.1291 24.8441 0)
(-8.1435 82.5099 0)
(-21.5704 70.6975 0)
(-28.7058 54.2985 0)
(-30.0965 39.4323 0)
(-28.1262 28.1262 0)
(-16.4011 138.936 0)
(-40.8186 107.162 0)
(-49.1165 71.8197 0)
(-46.28 46.28 0)
(-39.4323 30.0965 0)
(-39.9168 283.445 0)
(-88.6864 169.276 0)
(-89.5882 89.5882 0)
(-71.8197 49.1165 0)
(-54.2985 28.7058 0)
(-130.57 828.56 0)
(-234.675 234.675 0)
(-169.276 88.6864 0)
(-107.162 40.8186 0)
(-70.6975 21.5704 0)
(-633.802 633.802 0)
(-828.56 130.57 0)
(-283.445 39.9168 0)
(-138.936 16.4011 0)
(-82.5099 8.1435 0)
(-633.802 -633.802 0)
(-828.56 -130.57 0)
(-283.445 -39.9168 0)
(-138.936 -16.4011 0)
(-82.5099 -8.1435 0)
(-130.57 -828.56 0)
(-234.675 -234.675 0)
(-169.276 -88.6864 0)
(-107.162 -40.8186 0)
(-70.6975 -21.5704 0)
(-39.9168 -283.445 0)
(-88.6864 -169.276 0)
(-89.5882 -89.5882 0)
(-71.8197 -49.1165 0)
(-54.2985 -28.7058 0)
(-16.4011 -138.936 0)
(-40.8186 -107.162 0)
(-49.1165 -71.8197 0)
(-46.28 -46.28 0)
(-39.4323 -30.0965 0)
(-8.1435 -82.5099 0)
(-21.5704 -70.6975 0)
(-28.7058 -54.2985 0)
(-30.0965 -39.4323 0)
(-28.1262 -28.1262 0)
(-4.58869 -54.7006 0)
(-12.6072 -49.3839 0)
(-17.8513 -41.0765 0)
(-20.1077 -32.3927 0)
(-20.1291 -24.8441 0)
(-2.82677 -38.9426 0)
(-7.94635 -36.2137 0)
(-11.7146 -31.6432 0)
(-13.8641 -26.4046 0)
(-14.6039 -21.3931 0)
(-1.85978 -29.1452 0)
(-5.30784 -27.6052 0)
(-8.04226 -24.91 0)
(-9.85754 -21.6236 0)
(-10.7859 -18.2546 0)
(-1.28677 -22.6361 0)
(-3.71117 -21.7027 0)
(-5.73292 -20.0202 0)
(-7.20867 -17.878 0)
(-8.11768 -15.5679 0)
(-0.926364 -9.99347 0)
(-2.69193 -9.63307 0)
(-4.21754 -8.97424 0)
(-5.40521 -8.11768 0)
(-6.22279 -7.17078 0)
)
;

boundaryField
{
    movingWall
    {
        type            fixedValue;
        value           uniform (1 0 0);
    }
    fixedWalls
    {
        type            noSlip;
    }
    frontAndBack
    {
        type            empty;
    }
    procBoundary2to1
    {
        type            processor;
        value           nonuniform List<vector> 
20
(
(0.926364 9.99347 0)
(1.28677 22.6361 0)
(1.85978 29.1452 0)
(2.82677 38.9426 0)
(4.58869 54.7006 0)
(8.1435 82.5099 0)
(16.4011 138.936 0)
(39.9168 283.445 0)
(130.57 828.56 0)
(633.802 633.802 0)
(633.802 -633.802 0)
(130.57 -828.56 0)
(39.9168 -283.445 0)
(16.4011 -138.936 0)
(8.1435 -82.5099 0)
(4.58869 -54.7006 0)
(2.82677 -38.9426 0)
(1.85978 -29.1452 0)
(1.28677 -22.6361 0)
(0.926364 -9.99347 0)
)
;
    }
    procBoundary2to3
    {
        type            processor;
        value           nonuniform List<vector> 
20
(
(-6.69334 6.22279 0)
(-8.52994 13.3149 0)
(-11.0048 15.1374 0)
(-14.3545 17.0614 0)
(-18.8703 18.8703 0)
(-24.8441 20.1291 0)
(-32.3927 20.1077 0)
(-41.0765 17.8513 0)
(-49.3839 12.6072 0)
(-54.7006 4.58869 0)
(-54.7006 -4.58869 0)
(-49.3839 -12.6072 0)
(-41.0765 -17.8513 0)
(-32.3927 -20.1077 0)
(-24.8441 -20.1291 0)
(-18.8703 -18.8703 0)
(-14.3545 -17.0614 0)
(-11.0048 -15.1374 0)
(-8.52994 -13.3149 0)
(-6.69334 -6.22279 0)
)
;
    }
}


// ************************************************************************* //
