/*--------------------------------*- C++ -*----------------------------------*\
  =========                 |
  \\      /  F ield         | OpenFOAM: The Open Source CFD Toolbox
   \\    /   O peration     | Website:  https://openfoam.org
    \\  /    A nd           | Version:  10
     \\/     M anipulation  |
\*---------------------------------------------------------------------------*/
FoamFile
{
    format      ascii;
    class       volVectorField;
    location    "0.4";
    object      U;
}
// * * * * * * * * * * * * * * * * * * * * * * * * * * * * * * * * * * * * * //

dimensions      [0 1 -1 0 0 0 0];

internalField   nonuniform List<vector> 
100
(
(-6.69334 6.22279 0)
(-6.87366 5.33419 0)
(-6.8329 4.53769 0)
(-6.63748 3.84499 0)
(-3.25444 3.25444 0)
(-8.52994 13.3149 0)
(-8.55876 11.2564 0)
(-8.3221 9.45457 0)
(-7.92073 7.92073 0)
(-3.84499 6.63748 0)
(-11.0048 15.1374 0)
(-10.734 12.4301 0)
(-10.1686 10.1686 0)
(-9.45457 8.3221 0)
(-4.53769 6.8329 0)
(-14.3545 17.0614 0)
(-13.5276 13.5276 0)
(-12.4301 10.734 0)
(-11.2564 8.55876 0)
(-5.33419 6.87366 0)
(-18.8703 18.8703 0)
(-17.0614 14.3545 0)
(-15.1374 11.0048 0)
(-13.3149 8.52994 0)
(-6.22279 6.69334 0)
(-24.8441 20.1291 0)
(-21.3931 14.6039 0)
(-18.2546 10.7859 0)
(-15.5679 8.11768 0)
(-7.17078 6.22279 0)
(-32.3927 20.1077 0)
(-26.4046 13.8641 0)
(-21.6236 9.85754 0)
(-17.878 7.20867 0)
(-8.11768 5.40521 0)
(-41.0765 17.8513 0)
(-31.6432 11.7146 0)
(-24.91 8.04226 0)
(-20.0202 5.73292 0)
(-8.97424 4.21754 0)
(-49.3839 12.6072 0)
(-36.2137 7.94635 0)
(-27.6052 5.30784 0)
(-21.7027 3.71117 0)
(-9.63307 2.69193 0)
(-54.7006 4.58869 0)
(-38.9426 2.82677 0)
(-29.1452 1.85978 0)
(-22.6361 1.28677 0)
(-9.99347 0.926364 0)
(-54.7006 -4.58869 0)
(-38.9426 -2.82677 0)
(-29.1452 -1.85978 0)
(-22.6361 -1.28677 0)
(-9.99347 -0.926364 0)
(-49.3839 -12.6072 0)
(-36.2137 -7.94635 0)
(-27.6052 -5.30784 0)
(-21.7027 -3.71117 0)
(-9.63307 -2.69193 0)
(-41.0765 -17.8513 0)
(-31.6432 -11.7146 0)
(-24.91 -8.04226 0)
(-20.0202 -5.73292 0)
(-8.97424 -4.21754 0)
(-32.3927 -20.1077 0)
(-26.4046 -13.8641 0)
(-21.6236 -9.85754 0)
(-17.878 -7.20867 0)
(-8.11768 -5.40521 0)
(-24.8441 -20.1291 0)
(-21.3931 -14.6039 0)
(-18.2546 -10.7859 0)
(-15.5679 -8.11768 0)
(-7.17078 -6.22279 0)
(-18.8703 -18.8703 0)
(-17.0614 -14.3545 0)
(-15.1374 -11.0048 0)
(-13.3149 -8.52994 0)
(-6.22279 -6.69334 0)
(-14.3545 -17.0614 0)
(-13.5276 -13.5276 0)
(-12.4301 -10.734 0)
(-11.2564 -8.55876 0)
(-5.33419 -6.87366 0)
(-11.0048 -15.1374 0)
(-10.734 -12.4301 0)
(-10.1686 -10.1686 0)
(-9.45457 -8.3221 0)
(-4.53769 -6.8329 0)
(-8.52994 -13.3149 0)
(-8.55876 -11.2564 0)
(-8.3221 -9.45457 0)
(-7.92073 -7.92073 0)
(-3.84499 -6.63748 0)
(-6.69334 -6.22279 0)
(-6.87366 -5.33419 0)
(-6.8329 -4.53769 0)
(-6.63748 -3.84499 0)
(-3.25444 -3.25444 0)
)
;

boundaryField
{
    movingWall
    {
        type            fixedValue;
        value           uniform (1 0 0);
    }
    fixedWalls
    {
        type            noSlip;
    }
    frontAndBack
    {
        type            empty;
    }
    procBoundary3to2
    {
        type            processor;
        value           nonuniform List<vector> 
20
(
(-6.22279 7.17078 0)
(-8.11768 15.5679 0)
(-10.7859 18.2546 0)
(-14.6039 21.3931 0)
(-20.1291 24.8441 0)
(-28.1262 28.1262 0)
(-39.4323 30.0965 0)
(-54.2985 28.7058 0)
(-70.6975 21.5704 0)
(-82.5099 8.1435 0)
(-82.5099 -8.1435 0)
(-70.6975 -21.5704 0)
(-54.2985 -28.7058 0)
(-39.4323 -30.0965 0)
(-28.1262 -28.1262 0)
(-20.1291 -24.8441 0)
(-14.6039 -21.3931 0)
(-10.7859 -18.2546 0)
(-8.11768 -15.5679 0)
(-6.22279 -7.17078 0)
)
;
    }
}


// ************************************************************************* //
