/*--------------------------------*- C++ -*----------------------------------*\
  =========                 |
  \\      /  F ield         | OpenFOAM: The Open Source CFD Toolbox
   \\    /   O peration     | Website:  https://openfoam.org
    \\  /    A nd           | Version:  10
     \\/     M anipulation  |
\*---------------------------------------------------------------------------*/
FoamFile
{
    format      ascii;
    class       volScalarField;
    location    "0.3";
    object      p;
}
// * * * * * * * * * * * * * * * * * * * * * * * * * * * * * * * * * * * * * //

dimensions      [0 2 -2 0 0 0 0];

internalField   nonuniform List<scalar> 
100
(
1.37894
1.36395
1.33538
1.29571
1.24792
1.54063
1.51981
1.48059
1.42705
1.36395
1.7452
1.71511
1.65931
1.58498
1.49982
2.01221
1.96648
1.88364
1.77693
1.65931
2.3753
2.30105
2.17131
2.01221
1.84596
2.89729
2.76552
2.54827
2.30105
2.0613
3.71034
3.44496
3.04988
2.65024
2.30105
5.14532
4.49945
3.71034
3.04988
2.54827
8.29657
6.1839
4.49945
3.44496
2.76552
18.5517
8.29657
5.14532
3.71034
2.89729
18.5517
8.29657
5.14532
3.71034
2.89729
8.29657
6.1839
4.49945
3.44496
2.76552
5.14532
4.49945
3.71034
3.04988
2.54827
3.71034
3.44496
3.04988
2.65024
2.30105
2.89729
2.76552
2.54827
2.30105
2.0613
2.3753
2.30105
2.17131
2.01221
1.84596
2.01221
1.96648
1.88364
1.77693
1.65931
1.7452
1.71511
1.65931
1.58498
1.49982
1.54063
1.51981
1.48059
1.42705
1.36395
1.37894
1.36395
1.33538
1.29571
1.24792
)
;

boundaryField
{
    movingWall
    {
        type            zeroGradient;
    }
    fixedWalls
    {
        type            zeroGradient;
    }
    frontAndBack
    {
        type            empty;
    }
    procBoundary2to1
    {
        type            processor;
        value           nonuniform List<scalar> 
20
(
1.37894
1.54063
1.7452
2.01221
2.3753
2.89729
3.71034
5.14532
8.29657
18.5517
18.5517
8.29657
5.14532
3.71034
2.89729
2.3753
2.01221
1.7452
1.54063
1.37894
)
;
    }
    procBoundary2to3
    {
        type            processor;
        value           nonuniform List<scalar> 
20
(
1.19502
1.29571
1.41046
1.54063
1.68652
1.84596
2.01221
2.17131
2.30105
2.3753
2.3753
2.30105
2.17131
2.01221
1.84596
1.68652
1.54063
1.41046
1.29571
1.19502
)
;
    }
}


// ************************************************************************* //
