# vtk DataFile Version 2.0
tracks
ASCII
DATASET POLYDATA
POINTS 104 float
-0.0206 0.001 1e-05 -0.02058 0.001 1e-05 -0.02056 0.001 1e-05 -0.02054 0.001
1e-05 -0.02052 0.001 1e-05 -0.0205 0.001 1e-05 -0.0202034 0.001 1e-05
-0.0199069 0.001 1e-05 -0.0196103 0.001 1e-05 -0.0193137 0.001 1e-05 -0.0190172
0.001 1e-05 -0.0206 0.00367778 1e-05 -0.02058 0.00367778 1e-05 -0.02056 0.00367778
1e-05 -0.02054 0.00367778 1e-05 -0.02052 0.00367778 1e-05 -0.0205 0.00367778 1e-05
-0.0202034 0.00367778 1e-05 -0.0199069 0.00367778 1e-05 -0.0196103 0.00367778 1e-05 -0.0193137
0.00367778 1e-05 -0.0206 0.00635556 1e-05 -0.02058 0.00635556 1e-05 -0.02056 0.00635556
1e-05 -0.02054 0.00635556 1e-05 -0.02052 0.00635556 1e-05 -0.0205 0.00635556 1e-05
-0.0202034 0.00635556 1e-05 -0.0199069 0.00635556 1e-05 -0.0196103 0.00635556 1e-05 -0.0193137
0.00635556 1e-05 -0.0190172 0.00635556 1e-05 -0.0206 0.00903333 1e-05 -0.02058 0.00903333
1e-05 -0.02056 0.00903333 1e-05 -0.02054 0.00903333 1e-05 -0.02052 0.00903333 1e-05
-0.0205 0.00903333 1e-05 -0.0202034 0.00903333 1e-05 -0.0199069 0.00903333 1e-05 -0.0196103
0.00903333 1e-05 -0.0206 0.0117111 1e-05 -0.02058 0.0117111 1e-05 -0.02056 0.0117111
1e-05 -0.02054 0.0117111 1e-05 -0.02052 0.0117111 1e-05 -0.0205 0.0117111 1e-05
-0.0202034 0.0117111 1e-05 -0.0199069 0.0117111 1e-05 -0.0196103 0.0117111 1e-05 -0.0193137
0.0117111 1e-05 -0.0206 0.0143889 1e-05 -0.02058 0.0143889 1e-05 -0.02056 0.0143889
1e-05 -0.02054 0.0143889 1e-05 -0.02052 0.0143889 1e-05 -0.0205 0.0143889 1e-05
-0.0202034 0.0143889 1e-05 -0.0199069 0.0143889 1e-05 -0.0196103 0.0143889 1e-05 -0.0193137
0.0143889 1e-05 -0.0206 0.0170667 1e-05 -0.02058 0.0170667 1e-05 -0.02056 0.0170667
1e-05 -0.02054 0.0170667 1e-05 -0.02052 0.0170667 1e-05 -0.0205 0.0170667 1e-05
-0.0202034 0.0170667 1e-05 -0.0199069 0.0170667 1e-05 -0.0196103 0.0170667 1e-05 -0.0193137
0.0170667 1e-05 -0.0190172 0.0170667 1e-05 -0.0206 0.0197444 1e-05 -0.02058 0.0197444
1e-05 -0.02056 0.0197444 1e-05 -0.02054 0.0197444 1e-05 -0.02052 0.0197444 1e-05
-0.0205 0.0197444 1e-05 -0.0202034 0.0197444 1e-05 -0.0199069 0.0197444 1e-05 -0.0196103
0.0197444 1e-05 -0.0193137 0.0197444 1e-05 -0.0190172 0.0197444 1e-05 -0.0206 0.0224222
1e-05 -0.02058 0.0224222 1e-05 -0.02056 0.0224222 1e-05 -0.02054 0.0224222 1e-05
-0.02052 0.0224222 1e-05 -0.0205 0.0224222 1e-05 -0.0202034 0.0224222 1e-05 -0.0199069
0.0224222 1e-05 -0.0196103 0.0224222 1e-05 -0.0193137 0.0224222 1e-05 -0.0190172 0.0224222
1e-05 -0.0206 0.0251 1e-05 -0.02058 0.0251 1e-05 -0.02056 0.0251 1e-05
-0.02054 0.0251 1e-05 -0.02052 0.0251 1e-05 -0.0205 0.0251 1e-05 -0.0202034
0.0251 1e-05 -0.0199069 0.0251 1e-05 -0.0196103 0.0251 1e-05 -0.0193137 0.0251
1e-05 
LINES 10 114
11 0 1 2 3 4 5 6 7 8 9
10 10 11 12 13 14 15 16 17 18
19 20 11 21 22 23 24 25 26 27
28 29 30 31 9 32 33 34 35 36
37 38 39 40 10 41 42 43 44 45
46 47 48 49 50 10 51 52 53 54
55 56 57 58 59 60 11 61 62 63
64 65 66 67 68 69 70 71 11 72
73 74 75 76 77 78 79 80 81 82
11 83 84 85 86 87 88 89 90 91
92 93 10 94 95 96 97 98 99 100
101 102 103 
POINT_DATA 104
FIELD attributes 4
age 1 104 float
-0.000352325 -0.00028502 -0.000216206 -0.000145815 -7.37729e-05 0 0.00109393 0.00250159 0.00444874 0.00760591 0.0159455
-0.000109176 -8.8474e-05 -6.7235e-05 -4.54307e-05 -2.30302e-05 0 0.000341501 0.000927129 0.00205029 0.00621086
-6.93416e-05 -5.58336e-05 -4.21502e-05 -2.82867e-05 -1.42383e-05 0 0.00021113 0.00047518 0.000827552 0.00135703
0.00242152 -5.93258e-05 -4.80876e-05 -3.65527e-05 -2.4705e-05 -1.25271e-05 0 0.000185756 0.000508885 0.00137811
-5.50775e-05 -4.46501e-05 -3.39446e-05 -2.29457e-05 -1.16368e-05 0 0.000172555 0.000475269 0.00117504 0.00639072
-5.59406e-05 -4.53517e-05 -3.44794e-05 -2.33082e-05 -1.18212e-05 0 0.000175289 0.000483578 0.00129463 0.0392621
-6.15197e-05 -4.98433e-05 -3.78694e-05 -2.55823e-05 -1.29652e-05 0 0.000192253 0.000449593 0.00081116 0.00141886
0.00332224 -7.79821e-05 -6.31618e-05 -4.7973e-05 -3.23969e-05 -1.64132e-05 0 0.00024338 0.000559031 0.000996714
0.00171026 0.00364018 -0.00013162 -0.000106811 -8.12883e-05 -5.50105e-05 -2.79312e-05 0 0.000414175 0.00107087
0.00204976 0.00397151 0.0561798 -0.000995486 -0.000804963 -0.000610341 -0.000411436 -0.000208058 0 0.00308516
0.0077682 0.0158195 0.0409047 
p 1 104 float
0 0 0 0 0 0 0 0 0 0 0
0 0 0 0 0 0 0 0 0 0
0 0 0 0 0 0 0 0 0 0
0 0 0 0 0 0 0 0 0 0
0 0 0 0 0 0 0 0 0 0
0 0 0 0 0 0 0 0 0 0
0 0 0 0 0 0 0 0 0 0
0 0 0 0 0 0 0 0 0 0
0 0 0 0 0 0 0 0 0 0
0 0 0 0 0 0 0 0 0 0
0 0 0 
k 1 104 float
0.375 0.375 0.375 0.375 0.375 0.375 0.375 0.375 0.375 0.375 0.375
0.375 0.375 0.375 0.375 0.375 0.375 0.375 0.375 0.375 0.375
0.375 0.375 0.375 0.375 0.375 0.375 0.375 0.375 0.375 0.375
0.375 0.375 0.375 0.375 0.375 0.375 0.375 0.375 0.375 0.375
0.375 0.375 0.375 0.375 0.375 0.375 0.375 0.375 0.375 0.375
0.375 0.375 0.375 0.375 0.375 0.375 0.375 0.375 0.375 0.375
0.375 0.375 0.375 0.375 0.375 0.375 0.375 0.375 0.375 0.375
0.375 0.375 0.375 0.375 0.375 0.375 0.375 0.375 0.375 0.375
0.375 0.375 0.375 0.375 0.375 0.375 0.375 0.375 0.375 0.375
0.375 0.375 0.375 0.375 0.375 0.375 0.375 0.375 0.375 0.375
0.375 0.375 0.375 
U 3 104 float
0.303666 0 0 0.297153 0 0 0.29064 0 0 0.284128 0
0 0.277615 0 0 0.271102 0 0 0.210681 0 0
0.152308 0 0 0.0939348 0 0 0.0355615 0 0 0
0 0 0.990492 0 0 0.966078 0 0 0.941665 0
0 0.917251 0 0 0.892837 0 0 0.868424 0 0
0.506409 0 0 0.264047 0 0 0.0712805 0 0 0
0 0 1.50275 0 0 1.48061 0 0 1.46162 0
0 1.44264 0 0 1.42365 0 0 1.40467 0 0
1.12315 0 0 0.841632 0 0 0.560115 0 0 0.278599
0 0 0 0 0 1.82541 0 0 1.77964 0
0 1.73387 0 0 1.68809 0 0 1.64232 0 0
1.59654 0 0 0.917797 0 0 0.341188 0 0 0
0 0 1.96787 0 0 1.91803 0 0 1.8682 0
0 1.81836 0 0 1.76852 0 0 1.71869 0 0
0.979695 0 0 0.423805 0 0 0.0568607 0 0 0
0 0 1.93799 0 0 1.88877 0 0 1.83954 0
0 1.79032 0 0 1.7411 0 0 1.69187 0 0
0.96198 0 0 0.365658 0 0 0.0078111 0 0 0
0 0 1.75543 0 0 1.71286 0 0 1.67029 0
0 1.62772 0 0 1.58516 0 0 1.54259 0 0
1.15244 0 0 0.820227 0 0 0.488019 0 0 0.15581
0 0 0 0 0 1.38224 0 0 1.3495 0
0 1.31676 0 0 1.28402 0 0 1.25128 0 0
1.21853 0 0 0.939543 0 0 0.677585 0 0 0.415626
0 0 0.153668 0 0 0 0 0 0.82868 0
0 0.806153 0 0 0.783626 0 0 0.761099 0 0
0.738572 0 0 0.716044 0 0 0.451604 0 0 0.302963
0 0 0.154322 0 0 0.00568046 0 0 0 0
0 0.107187 0 0 0.104975 0 0 0.102763 0 0
0.100551 0 0 0.098339 0 0 0.096127 0 0 0.063328
0 0 0.0368349 0 0 0.0118224 0 0 0 0
0 
